# vtk DataFile Version 3.0
file is written by Andrei
ASCII
DATASET POLYDATA
POINTS 10201 double
0.0 0.0 -1272.736
50.0 0.0 -1273.1038
100.0 0.0 -1273.4303
150.0 0.0 -1273.6709
200.0 0.0 -1273.8017
250.0 0.0 -1273.8197
300.0 0.0 -1273.7461
350.0 0.0 -1273.621
400.0 0.0 -1273.4872
450.0 0.0 -1273.3883
500.0 0.0 -1273.3688
550.0 0.0 -1273.4698
600.0 0.0 -1273.7174
650.0 0.0 -1274.119
700.0 0.0 -1274.659
750.0 0.0 -1275.2942
800.0 0.0 -1275.9678
850.0 0.0 -1276.6257
900.0 0.0 -1277.2343
950.0 0.0 -1277.769
1000.0 0.0 -1278.2107
1050.0 0.0 -1278.5474
1100.0 0.0 -1278.7815
1150.0 0.0 -1278.9304
1200.0 0.0 -1279.0222
1250.0 0.0 -1279.087
1300.0 0.0 -1279.1344
1350.0 0.0 -1279.1125
1400.0 0.0 -1278.9582
1450.0 0.0 -1278.6223
1500.0 0.0 -1278.0829
1550.0 0.0 -1277.3498
1600.0 0.0 -1276.4541
1650.0 0.0 -1275.4358
1700.0 0.0 -1274.3464
1750.0 0.0 -1273.2513
1800.0 0.0 -1272.2249
1850.0 0.0 -1271.3299
1900.0 0.0 -1270.6072
1950.0 0.0 -1270.0673
2000.0 0.0 -1269.6907
2050.0 0.0 -1269.4382
2100.0 0.0 -1269.2713
2150.0 0.0 -1269.1649
2200.0 0.0 -1269.1052
2250.0 0.0 -1269.0858
2300.0 0.0 -1269.1068
2350.0 0.0 -1269.177
2400.0 0.0 -1269.3127
2450.0 0.0 -1269.5358
2500.0 0.0 -1269.8716
2550.0 0.0 -1270.3434
2600.0 0.0 -1270.958
2650.0 0.0 -1271.6988
2700.0 0.0 -1272.5357
2750.0 0.0 -1273.4325
2800.0 0.0 -1274.3482
2850.0 0.0 -1275.2389
2900.0 0.0 -1276.057
2950.0 0.0 -1276.7511
3000.0 0.0 -1277.268
3050.0 0.0 -1277.5643
3100.0 0.0 -1277.632
3150.0 0.0 -1277.5072
3200.0 0.0 -1277.2623
3250.0 0.0 -1276.9859
3300.0 0.0 -1276.7431
3350.0 0.0 -1276.5614
3400.0 0.0 -1276.4256
3450.0 0.0 -1276.296
3500.0 0.0 -1276.132
3550.0 0.0 -1275.9087
3600.0 0.0 -1275.6276
3650.0 0.0 -1275.3102
3700.0 0.0 -1274.9884
3750.0 0.0 -1274.6975
3800.0 0.0 -1274.4681
3850.0 0.0 -1274.3071
3900.0 0.0 -1274.207
3950.0 0.0 -1274.158
4000.0 0.0 -1274.1441
4050.0 0.0 -1274.1423
4100.0 0.0 -1274.1328
4150.0 0.0 -1274.1055
4200.0 0.0 -1274.0632
4250.0 0.0 -1274.0199
4300.0 0.0 -1273.9984
4350.0 0.0 -1274.0242
4400.0 0.0 -1274.1159
4450.0 0.0 -1274.2755
4500.0 0.0 -1274.4939
4550.0 0.0 -1274.7552
4600.0 0.0 -1275.0464
4650.0 0.0 -1275.3553
4700.0 0.0 -1275.6695
4750.0 0.0 -1275.9758
4800.0 0.0 -1276.2615
4850.0 0.0 -1276.5206
4900.0 0.0 -1276.7572
4950.0 0.0 -1276.9823
5000.0 0.0 -1277.2063
0.0 50.0 -1281.5799
50.0 50.0 -1281.8827
100.0 50.0 -1282.1456
150.0 50.0 -1282.3494
200.0 50.0 -1282.4731
250.0 50.0 -1282.513
300.0 50.0 -1282.4894
350.0 50.0 -1282.4322
400.0 50.0 -1282.3741
450.0 50.0 -1282.3498
500.0 50.0 -1282.3942
550.0 50.0 -1282.5366
600.0 50.0 -1282.7957
650.0 50.0 -1283.1789
700.0 50.0 -1283.6804
750.0 50.0 -1284.2551
800.0 50.0 -1284.8544
850.0 50.0 -1285.4414
900.0 50.0 -1285.9886
950.0 50.0 -1286.4738
1000.0 50.0 -1286.879
1050.0 50.0 -1287.1926
1100.0 50.0 -1287.4122
1150.0 50.0 -1287.5446
1200.0 50.0 -1287.6093
1250.0 50.0 -1287.6437
1300.0 50.0 -1287.6934
1350.0 50.0 -1287.6691
1400.0 50.0 -1287.513
1450.0 50.0 -1287.1858
1500.0 50.0 -1286.677
1550.0 50.0 -1286.0004
1600.0 50.0 -1285.1828
1650.0 50.0 -1284.2595
1700.0 50.0 -1283.2763
1750.0 50.0 -1282.2897
1800.0 50.0 -1281.3586
1850.0 50.0 -1280.5346
1900.0 50.0 -1279.8536
1950.0 50.0 -1279.3288
2000.0 50.0 -1278.9409
2050.0 50.0 -1278.6603
2100.0 50.0 -1278.4602
2150.0 50.0 -1278.3235
2200.0 50.0 -1278.2391
2250.0 50.0 -1278.2013
2300.0 50.0 -1278.2103
2350.0 50.0 -1278.2732
2400.0 50.0 -1278.4025
2450.0 50.0 -1278.6161
2500.0 50.0 -1278.9349
2550.0 50.0 -1279.3779
2600.0 50.0 -1279.9516
2650.0 50.0 -1280.6405
2700.0 50.0 -1281.4141
2750.0 50.0 -1282.2378
2800.0 50.0 -1283.0745
2850.0 50.0 -1283.8848
2900.0 50.0 -1284.6267
2950.0 50.0 -1285.2548
3000.0 50.0 -1285.7238
3050.0 50.0 -1286.0013
3100.0 50.0 -1286.0828
3150.0 50.0 -1285.9978
3200.0 50.0 -1285.8121
3250.0 50.0 -1285.6244
3300.0 50.0 -1285.4563
3350.0 50.0 -1285.315
3400.0 50.0 -1285.1908
3450.0 50.0 -1285.0591
3500.0 50.0 -1284.8956
3550.0 50.0 -1284.6877
3600.0 50.0 -1284.4384
3650.0 50.0 -1284.1624
3700.0 50.0 -1283.8827
3750.0 50.0 -1283.6304
3800.0 50.0 -1283.4405
3850.0 50.0 -1283.3074
3900.0 50.0 -1283.2232
3950.0 50.0 -1283.1804
4000.0 50.0 -1283.1666
4050.0 50.0 -1283.1653
4100.0 50.0 -1283.1624
4150.0 50.0 -1283.1516
4200.0 50.0 -1283.1356
4250.0 50.0 -1283.1251
4300.0 50.0 -1283.1375
4350.0 50.0 -1283.1948
4400.0 50.0 -1283.3194
4450.0 50.0 -1283.5026
4500.0 50.0 -1283.7374
4550.0 50.0 -1284.0145
4600.0 50.0 -1284.3238
4650.0 50.0 -1284.6546
4700.0 50.0 -1284.9949
4750.0 50.0 -1285.3313
4800.0 50.0 -1285.6517
4850.0 50.0 -1285.9498
4900.0 50.0 -1286.2278
4950.0 50.0 -1286.4944
5000.0 50.0 -1286.7574
0.0 100.0 -1290.4625
50.0 100.0 -1290.6945
100.0 100.0 -1290.914
150.0 100.0 -1291.0943
200.0 100.0 -1291.2063
250.0 100.0 -1291.2537
300.0 100.0 -1291.2563
350.0 100.0 -1291.2384
400.0 100.0 -1291.2267
450.0 100.0 -1291.2499
500.0 100.0 -1291.3357
550.0 100.0 -1291.5067
600.0 100.0 -1291.777
650.0 100.0 -1292.1519
700.0 100.0 -1292.6408
750.0 100.0 -1293.1841
800.0 100.0 -1293.742
850.0 100.0 -1294.2856
900.0 100.0 -1294.7921
950.0 100.0 -1295.2423
1000.0 100.0 -1295.6199
1050.0 100.0 -1295.9133
1100.0 100.0 -1296.1158
1150.0 100.0 -1296.2271
1200.0 100.0 -1296.2591
1250.0 100.0 -1296.2533
1300.0 100.0 -1296.3489
1350.0 100.0 -1296.3497
1400.0 100.0 -1296.2076
1450.0 100.0 -1295.8934
1500.0 100.0 -1295.4067
1550.0 100.0 -1294.7648
1600.0 100.0 -1293.9932
1650.0 100.0 -1293.1254
1700.0 100.0 -1292.2046
1750.0 100.0 -1291.2813
1800.0 100.0 -1290.4069
1850.0 100.0 -1289.6272
1900.0 100.0 -1288.9754
1950.0 100.0 -1288.4707
2000.0 100.0 -1288.0874
2050.0 100.0 -1287.7964
2100.0 100.0 -1287.5784
2150.0 100.0 -1287.4212
2200.0 100.0 -1287.3165
2250.0 100.0 -1287.2595
2300.0 100.0 -1287.2507
2350.0 100.0 -1287.2961
2400.0 100.0 -1287.4074
2450.0 100.0 -1287.6008
2500.0 100.0 -1287.8951
2550.0 100.0 -1288.3072
2600.0 100.0 -1288.8486
2650.0 100.0 -1289.5086
2700.0 100.0 -1290.2504
2750.0 100.0 -1291.0352
2800.0 100.0 -1291.8293
2850.0 100.0 -1292.5963
2900.0 100.0 -1293.2965
2950.0 100.0 -1293.8866
3000.0 100.0 -1294.3251
3050.0 100.0 -1294.584
3100.0 100.0 -1294.6601
3150.0 100.0 -1294.5801
3200.0 100.0 -1294.4086
3250.0 100.0 -1294.2855
3300.0 100.0 -1294.1715
3350.0 100.0 -1294.0667
3400.0 100.0 -1293.9616
3450.0 100.0 -1293.839
3500.0 100.0 -1293.684
3550.0 100.0 -1293.4909
3600.0 100.0 -1293.2635
3650.0 100.0 -1293.0133
3700.0 100.0 -1292.7583
3750.0 100.0 -1292.5264
3800.0 100.0 -1292.3707
3850.0 100.0 -1292.2678
3900.0 100.0 -1292.2047
3950.0 100.0 -1292.1765
4000.0 100.0 -1292.1727
4050.0 100.0 -1292.1797
4100.0 100.0 -1292.1869
4150.0 100.0 -1292.1905
4200.0 100.0 -1292.1935
4250.0 100.0 -1292.2049
4300.0 100.0 -1292.2392
4350.0 100.0 -1292.3181
4400.0 100.0 -1292.4724
4450.0 100.0 -1292.6813
4500.0 100.0 -1292.9397
4550.0 100.0 -1293.2414
4600.0 100.0 -1293.5784
4650.0 100.0 -1293.9405
4700.0 100.0 -1294.3152
4750.0 100.0 -1294.6882
4800.0 100.0 -1295.0476
4850.0 100.0 -1295.3873
4900.0 100.0 -1295.7087
4950.0 100.0 -1296.0236
5000.0 100.0 -1296.3633
0.0 150.0 -1299.427
50.0 150.0 -1299.5626
100.0 150.0 -1299.7371
150.0 150.0 -1299.8782
200.0 150.0 -1299.9645
250.0 150.0 -1300.0059
300.0 150.0 -1300.0195
350.0 150.0 -1300.0244
400.0 150.0 -1300.0432
450.0 150.0 -1300.0999
500.0 150.0 -1300.2175
550.0 150.0 -1300.4147
600.0 150.0 -1300.7034
650.0 150.0 -1301.0848
700.0 150.0 -1301.5616
750.0 150.0 -1302.0817
800.0 150.0 -1302.6126
850.0 150.0 -1303.1283
900.0 150.0 -1303.6087
950.0 150.0 -1304.0368
1000.0 150.0 -1304.3983
1050.0 150.0 -1304.6823
1100.0 150.0 -1304.8809
1150.0 150.0 -1304.9915
1200.0 150.0 -1305.0236
1250.0 150.0 -1305.0221
1300.0 150.0 -1305.1272
1350.0 150.0 -1305.1261
1400.0 150.0 -1304.9838
1450.0 150.0 -1304.6746
1500.0 150.0 -1304.2013
1550.0 150.0 -1303.5802
1600.0 150.0 -1302.8354
1650.0 150.0 -1302.0009
1700.0 150.0 -1301.1188
1750.0 150.0 -1300.236
1800.0 150.0 -1299.3997
1850.0 150.0 -1298.6498
1900.0 150.0 -1298.0127
1950.0 150.0 -1297.5255
2000.0 150.0 -1297.1474
2050.0 150.0 -1296.8498
2100.0 150.0 -1296.6186
2150.0 150.0 -1296.4448
2200.0 150.0 -1296.3219
2250.0 150.0 -1296.2465
2300.0 150.0 -1296.2195
2350.0 150.0 -1296.2471
2400.0 150.0 -1296.3409
2450.0 150.0 -1296.5161
2500.0 150.0 -1296.7874
2550.0 150.0 -1297.1629
2600.0 150.0 -1297.6776
2650.0 150.0 -1298.3276
2700.0 150.0 -1299.053
2750.0 150.0 -1299.8175
2800.0 150.0 -1300.5891
2850.0 150.0 -1301.3331
2900.0 150.0 -1302.0096
2950.0 150.0 -1302.5767
3000.0 150.0 -1302.9962
3050.0 150.0 -1303.2439
3100.0 150.0 -1303.3196
3150.0 150.0 -1303.253
3200.0 150.0 -1303.1029
3250.0 150.0 -1303.0045
3300.0 150.0 -1302.9148
3350.0 150.0 -1302.8284
3400.0 150.0 -1302.7339
3450.0 150.0 -1302.618
3500.0 150.0 -1302.4713
3550.0 150.0 -1302.2916
3600.0 150.0 -1302.0835
3650.0 150.0 -1301.8574
3700.0 150.0 -1301.629
3750.0 150.0 -1301.4221
3800.0 150.0 -1301.2838
3850.0 150.0 -1301.2013
3900.0 150.0 -1301.1557
3950.0 150.0 -1301.1414
4000.0 150.0 -1301.1483
4050.0 150.0 -1301.1647
4100.0 150.0 -1301.1825
4150.0 150.0 -1301.1996
4200.0 150.0 -1301.2197
4250.0 150.0 -1301.2514
4300.0 150.0 -1301.309
4350.0 150.0 -1301.4096
4400.0 150.0 -1301.5813
4450.0 150.0 -1301.81
4500.0 150.0 -1302.0909
4550.0 150.0 -1302.4189
4600.0 150.0 -1302.7865
4650.0 150.0 -1303.1832
4700.0 150.0 -1303.5957
4750.0 150.0 -1304.0104
4800.0 150.0 -1304.4173
4850.0 150.0 -1304.8141
4900.0 150.0 -1305.2087
4950.0 150.0 -1305.6181
5000.0 150.0 -1306.0775
0.0 200.0 -1308.512
50.0 200.0 -1308.5602
100.0 200.0 -1308.6234
150.0 200.0 -1308.6819
200.0 200.0 -1308.7198
250.0 200.0 -1308.74
300.0 200.0 -1308.7515
350.0 200.0 -1308.7681
400.0 200.0 -1308.808
450.0 200.0 -1308.8911
500.0 200.0 -1309.0362
550.0 200.0 -1309.2593
600.0 200.0 -1309.5691
650.0 200.0 -1309.9601
700.0 200.0 -1310.4234
750.0 200.0 -1310.9257
800.0 200.0 -1311.437
850.0 200.0 -1311.9338
900.0 200.0 -1312.3976
950.0 200.0 -1312.8137
1000.0 200.0 -1313.1698
1050.0 200.0 -1313.456
1100.0 200.0 -1313.6659
1150.0 200.0 -1313.7987
1200.0 200.0 -1313.8648
1250.0 200.0 -1313.9018
1300.0 200.0 -1313.9585
[...]
CELL_DATA 20000
SCALARS Z double 1
LOOKUP_TABLE default
-1275.8065666666669
-1278.8554666666666
-1276.1389333333334
-1279.1528666666666
-1276.4156
-1279.3886333333332
-1276.6073333333334
-1279.5414
-1276.6981666666668
-1279.6019333333334
-1276.6929333333335
-1279.5828333333332
-1276.6188333333332
-1279.5141999999998
-1276.5134666666668
-1279.4311666666667
-1276.4165333333333
-1279.3707333333334
-1276.3689666666667
-1279.3709333333334
-1276.4109333333333
-1279.4668666666666
-1276.5746000000001
-1279.6832333333334
-1276.8773666666666
-1280.0312000000001
-1277.3189666666667
-1280.5061
-1277.8778666666667
-1281.0765666666666
-1278.5057
-1281.6924333333334
-1279.1492999999998
-1282.3071666666667
-1279.7671333333335
-1282.8881
-1280.3306333333333
-1283.4104666666665
-1280.8178333333333
-1283.8545
-1281.2123666666666
-1284.2063333333333
-1281.5071666666665
-1284.4621
-1281.7080333333333
-1284.6290666666666
-1281.8324
-1284.7253666666668
-1281.9061666666669
-1284.78
-1281.9550333333334
-1284.8238333333334
-1281.9801
-1284.825
-1281.9132666666667
-1284.7134333333333
-1281.6978333333334
-1284.4403666666667
-1281.2970000000003
-1283.9819
-1280.7032333333334
-1283.3423999999998
-1279.9347666666665
-1282.5457666666666
-1279.0242333333333
-1281.6260333333332
-1278.0139
-1280.6273999999999
-1276.9579999999999
-1279.6057666666666
-1275.9219666666668
-1278.6244
-1274.9711333333332
-1277.7410333333335
-1274.1572333333331
-1276.9984666666667
-1273.5093666666664
-1276.4165666666665
-1273.0289333333333
-1275.9868
-1272.6899333333333
-1275.6798000000001
-1272.4566000000002
-1275.4639333333334
-1272.2987999999998
-1275.3162
-1272.1978666666666
-1275.2226
-1272.1433666666665
-1275.1754
-1272.1313
-1275.1728
-1272.1647
-1275.2201666666667
-1272.2543
-1275.3294666666666
-1272.417
-1275.5181333333333
-1272.6744999999999
-1275.8075333333334
-1273.0499666666665
-1276.2187333333331
-1273.5597666666667
-1276.7625
-1274.2028
-1277.4303
-1274.9583333333333
-1278.1967666666667
-1275.7940999999998
-1279.0281333333332
-1276.6728333333333
-1279.8868333333332
-1277.5538666666669
-1280.7327333333333
-1278.3935666666666
-1281.5228333333334
-1279.1449333333333
-1282.2108666666666
-1279.7579666666668
-1282.7488666666666
-1280.1853666666666
-1283.0964666666666
-1280.3992
-1283.2387
-1280.4073333333333
-1283.1959333333334
-1280.255766666667
-1283.0240666666668
-1280.0201
-1282.8074666666664
-1279.7844666666667
-1282.6079333333334
-1279.5869333333333
-1282.4442333333334
-1279.434
-1282.3104666666666
-1279.3041333333333
-1282.1819666666668
-1279.1623666666667
-1282.0289
-1278.9787666666668
-1281.8306666666667
-1278.7413333333334
-1281.5845666666667
-1278.4587333333332
-1281.3036666666667
-1278.1536666666668
-1281.011166666667
-1277.8562000000002
-1280.7368666666669
-1277.5986666666668
-1280.513
-1277.4052333333332
-1280.3516666666667
-1277.2738333333334
-1280.2458666666669
-1277.1960666666666
-1280.1871999999998
-1277.1608333333331
-1280.1636999999998
-1277.151
-1280.1580666666666
-1277.1468000000002
-1280.1535000000001
-1277.1335666666666
-1280.1398333333334
-1277.1067666666665
-1280.1168
-1277.0729000000001
-1280.0935333333334
-1277.0478
-1280.087
-1277.0533666666668
-1280.1188333333332
-1277.1116333333332
-1280.2100333333335
-1277.2369333333334
-1280.3658333333333
-1277.424
-1280.5779666666665
-1277.6621666666667
-1280.8357
-1277.9387
-1281.1282333333331
-1278.2418333333333
-1281.4445666666668
-1278.5598
-1281.773
-1278.8800666666666
-1282.1006666666665
-1279.1895333333334
-1282.4148333333335
-1279.4779333333333
-1282.7073666666665
-1279.7425333333333
-1282.9782666666667
-1279.9890999999998
-1283.2348333333332
-1280.2276666666667
-1283.4860333333334
-1284.6417000000001
-1287.6799
-1284.9076000000002
-1287.9180333333334
-1285.1363333333334
-1288.1192333333333
-1285.3056
-1288.2578999999998
-1285.3974666666666
-1288.3243333333332
-1285.4187
-1288.3331333333333
-1285.3926333333332
-1288.3089666666667
-1285.3482333333334
-1288.2797333333333
-1285.3168666666668
-1288.2754666666667
-1285.3312999999998
-1288.3266
-1285.4221666666667
-1288.4596666666666
-1285.613
-1288.6931333333332
-1285.9171999999999
-1289.0359333333333
-1286.3370666666667
-1289.4910333333335
-1286.8587666666665
-1290.0266666666666
-1287.4312
-1290.5935
-1288.0126
-1291.1563333333334
-1288.5718666666664
-1291.6887666666664
-1289.0848333333333
-1292.1693999999998
-1289.5316999999998
-1292.5803999999998
-1289.8971666666666
-1292.9086
-1290.1727
-1293.1471
-1290.3575333333335
-1293.2958333333333
-1290.4603333333334
-1293.3651666666667
-1290.5040333333334
-1293.3853666666666
-1290.5301333333334
-1293.4318666666668
-1290.5704666666668
-1293.4559
-1290.5105999999998
-1293.3567666666665
-1290.3021333333334
-1293.0955999999999
-1289.9187333333332
-1292.6590333333334
-1289.3613666666668
-1292.0573
-1288.6493333333333
-1291.3136
-1287.8118333333332
-1290.4593666666667
-1286.8870666666667
-1289.5354333333332
-1285.9235333333334
-1288.5918666666666
-1284.9765333333332
-1287.6822666666667
-1284.1000333333334
-1286.8562333333332
-1283.3384666666666
-1286.1520666666668
-1282.7192666666667
-1285.5916333333334
-1282.2468000000001
-1285.1663333333333
-1281.8962
-1284.8480333333332
-1281.6389666666666
-1284.6116666666667
-1281.4540333333332
-1284.4410333333333
-1281.3279333333332
-1284.3256
-1281.2522999999999
-1284.2591
-1281.2236999999998
-1284.2401666666665
-1281.2447333333334
-1284.2733333333333
-1281.3239333333333
-1284.3686666666665
-1281.4753333333335
-1284.5414333333335
-1281.7172666666665
-1284.8102666666666
-1282.0692999999999
-1285.1933999999999
-1282.5455666666667
-1285.7024666666666
-1283.1469
-1286.3325666666667
-1283.8544
-1287.0577
-1284.6341
-1287.8411333333333
-1285.4491666666665
-1288.6463333333334
-1286.2628666666667
-1289.4368000000002
-1287.0359333333333
-1290.1731666666665
-1287.7259999999999
-1290.8126333333332
-1288.2884000000001
-1291.3118333333332
-1288.6834
-1291.6368
-1288.8893666666665
-1291.7756333333334
-1288.9135666666668
-1291.746
-1288.7966666666669
-1291.6002666666666
-1288.6150333333333
-1291.4394999999997
-1288.4553999999998
-1291.3044333333335
-1288.3142666666668
-1291.1843999999999
-1288.1908333333333
-1291.0730333333333
-1288.0705
-1290.9532333333334
-1287.9312333333335
-1290.8062
-1287.7557666666667
-1290.6208666666666
-1287.539
-1290.3976
-1287.2881
-1290.1463999999999
-1287.0194666666666
-1289.8847666666668
-1286.7571333333333
-1289.6383666666668
-1286.532433333333
-1289.4458666666667
-1286.3728666666666
-1289.3153
-1286.2661333333333
-1289.2319
-1286.2027666666665
-1289.1872
-1286.1744999999999
-1289.1719333333333
-1286.1682
-1289.1725666666664
-1286.169133333333
-1289.176333333333
-1286.1669666666667
-1289.176333333333
-1286.1592333333333
-1289.1732
-1286.1514
-1289.1745
-1286.1558333333332
-1289.1938666666665
-1286.1905
-1289.2506999999998
-1286.2774333333334
-1289.3699666666669
-1286.4314666666667
-1289.5520999999999
-1286.6404333333332
-1289.7861333333333
-1286.8972
-1290.0652
-1287.1932333333334
-1290.3812
-1287.5189333333335
-1290.7245
-1287.8633333333335
-1291.0835333333332
-1288.2137999999998
-1291.4449000000002
-1288.5570666666667
-1291.7958333333333
-1288.8830333333335
-1292.1282333333336
-1289.1883
-1292.4412666666667
-1289.4769666666666
-1292.7422333333332
-1289.7584666666667
-1293.0481
-1293.528
-1296.5613666666666
-1293.7236999999998
-1296.7379
-1293.9151333333332
-1296.9032
-1294.0595999999998
-1297.0163333333333
-1294.1415
-1297.0747000000001
-1294.1719666666668
-1297.0939
-1294.1714000000002
-1297.0941
-1294.1631666666665
-1297.0981000000002
-1294.1732666666667
-1297.131
-1294.2285
-1297.2177
-1294.3533
-1297.3796333333332
-1294.5661333333335
-1297.6317000000001
-1294.8774333333333
-1297.9800333333333
-1295.2925000000002
-1298.4290666666666
-1295.7955
-1298.9424666666666
-1296.3359333333335
-1299.4787666666668
-1296.8800666666666
-1300.0088333333333
-1297.402
-1300.5096999999998
-1297.8810333333333
-1300.9626
-1298.2996666666666
-1301.3516666666667
-1298.6438333333333
-1301.6646333333335
-1298.9037999999998
-1301.893
-1299.0746000000001
-1302.0331666666668
-1299.1592333333335
-1302.0914
-1299.1786666666667
-1302.0996666666667
-1299.2081
-1302.1660666666667
-1299.2752666666665
-1302.201
-1299.2278
-1302.1058333333333
-1299.0282666666665
-1301.8506
-1298.6582333333333
-1301.4275333333333
-1298.1242666666667
-1300.8487666666667
-1297.4460666666666
-1300.1362666666666
-1296.6513333333332
-1299.3205666666665
-1295.7769666666666
-1298.4414333333334
-1294.8682333333334
-1297.5453666666667
-1293.9747333333335
-1296.6808666666666
-1293.1445999999999
-1295.8922333333333
-1292.4174666666668
-1295.2126333333333
-1291.8196
-1294.6696333333332
-1291.3612
-1294.2534333333333
-1291.0104000000001
-1293.9312
-1290.7415333333336
-1293.6822666666667
-1290.5394
-1293.4948666666667
-1290.3941666666667
-1293.3610666666666
-1290.2993
-1293.2759666666668
-1290.2522333333334
-1293.2389
-1290.2554333333333
-1293.2542333333333
-1290.3168666666668
-1293.3318
-1290.4497000000001
-1293.4859333333334
-1290.6706666666666
-1293.7328666666665
-1290.9965666666667
-1294.0858333333333
-1291.4395666666667
-1294.5630333333336
-1292.0116
-1295.1712666666665
-1292.6955333333333
-1295.8770000000002
-1293.4462
-1296.6352333333334
-1294.2273333333335
-1297.4119666666668
-1295.0049
-1298.1728333333333
-1295.7419666666667
-1298.8797333333334
-1296.3975666666665
-1299.4909666666665
-1296.9294666666667
-1299.9660000000001
-1297.3017666666667
-1300.2747
-1297.496
-1300.4078666666667
-1297.5199333333333
-1300.3842333333332
-1297.4138999999998
-1300.2548333333334
-1297.2656666666667
-1300.1309666666666
-1297.1538333333333
-1300.0302666666666
-1297.0510000000002
-1299.9366333333335
-1296.9522333333334
-1299.8413
-1296.8448333333333
-1299.7303
-1296.7136666666665
-1299.5910999999999
-1296.5487333333333
-1299.4179333333332
-1296.3486666666668
-1299.2128666666667
-1296.1200999999999
-1298.9847333333335
-1295.8763333333334
-1298.7482333333332
-1295.6379
-1298.5258333333331
-1295.4397333333334
-1298.3588666666667
-1295.3074333333332
-1298.2509666666667
-1295.2246000000002
-1298.1872333333333
-1295.1789666666666
-1298.1578666666667
-1295.1635333333334
-1298.1541333333334
-1295.1669
-1298.1642333333332
-1295.1770999999999
-1298.1780333333334
-1295.186633333333
-1298.1908666666666
-1295.1945333333333
-1298.2042666666666
-1295.2060333333332
-1298.2253333333335
-1295.2318333333333
-1298.2665333333334
-1295.2887666666668
-1298.3455666666666
-1295.4000333333333
-1298.4877666666666
-1295.5783333333336
-1298.6908666666668
-1295.8103333333331
-1298.9468666666664
-1296.0906666666667
-1299.2504
-1296.4129
-1299.5946000000001
-1296.7684666666667
-1299.9700666666665
-1297.1463
-1300.3647
-1297.5330333333334
-1300.7647666666667
-1297.9153999999999
-1301.1584333333333
-1298.2840666666668
-1301.5395666666666
-1298.6367
-1301.9105
-1298.9803333333332
-1302.2834666666665
-1299.335
-1302.6863
-1302.5005333333331
-1305.5449333333333
-1302.6199666666669
-1305.6402333333333
-1302.7462333333333
-1305.7278333333334
-1302.8415333333335
-1305.7887333333335
-1302.8967333333333
-1305.8219000000001
-1302.9218
-1305.8370000000002
-1302.9318
-1305.848
-1302.9452333333334
-1305.8731
-1302.9837
-1305.933
-1303.0694999999998
-1306.0482666666667
-1303.2228000000002
-1306.2367333333334
-1303.4591333333335
-1306.5105999999998
-1303.7857666666666
-1306.8713333333333
-1304.2021666666667
-1307.3150333333333
-1304.6888999999999
-1307.8102666666666
-1305.2066666666667
-1308.3250999999998
-1305.7259666666666
-1308.8330333333333
-1306.2236
-1309.3133666666665
-1306.6810333333333
-1309.7493666666667
-1307.0829333333334
-1310.1272666666666
-1307.4168
-1310.4360333333332
-1307.6730666666665
-1310.6676
-1307.8461
-1310.8187
-1307.9379333333334
-1310.8957
-1307.9701666666667
-1310.9295666666667
-1308.0170333333333
-1310.9958333333334
-1308.0705999999998
-1311.0060666666666
-1308.0145
-1310.8974666666666
-1307.8111333333334
-1310.6371000000001
-1307.4458666666667
-1310.2189333333333
-1306.9251000000002
-1309.6525000000001
-1306.2663666666667
-1308.9579999999999
-1305.4971333333333
-1308.1665333333333
-1304.6544333333334
-1307.3176666666668
-1303.7818
-1306.4558
-1302.9255
-1305.6263666666666
-1302.1293666666668
-1304.8692666666666
-1301.4273
-1304.2124000000001
-1300.8477666666668
-1303.6832333333332
-1300.3973333333333
-1303.2653333333335
-1300.0422333333333
-1302.9325
-1299.7622
-1302.6695
-1299.5450333333335
-1302.4660000000001
-1299.3827333333331
-1302.3151
-1299.2701
-1302.2129000000002
-1299.2054333333333
-1302.1594000000002
-1299.1916666666668
-1302.1594666666667
-1299.2369666666666
-1302.2232666666666
-1299.3543333333334
-1302.3648333333333
-1299.5586333333333
-1302.5973999999999
-1299.8609
-1302.9298333333334
-1300.2782333333334
-1303.385
-1300.8294666666666
-1303.9741999999999
-1301.4974666666667
-1304.6608333333334
-1302.2294000000002
-1305.3998000000001
-1302.9902666666667
-1306.1576666666667
-1303.7473
-1306.9002666666665
-1304.4635666666666
-1307.5886333333335
-1305.0982000000001
-1308.1816333333334
-1305.6109333333334
-1308.6415666666667
-1305.9695666666667
-1308.9424000000001
-1306.1593999999998
-1309.0786333333333
-1306.1914
-1309.0723666666665
-1306.1061333333334
-1308.9729
-1305.9869
-1308.8697
-1305.8902
-1308.7758333333334
-1305.8015333333333
-1308.6882000000003
-1305.7123666666666
-1308.5960000000002
-1305.6104
-1308.4872333333333
-1305.4845666666668
-1308.3531
-1305.3288333333333
-1308.1905
-1305.1437999999998
-1308.0024666666666
-1304.9361666666666
-1307.7975333333334
-1304.718
-1307.5888666666667
-1304.5070333333333
-1307.3957
-1304.3336333333334
-1307.2496333333336
-1304.2184
-1307.1551
-1304.1503
-1307.1023666666667
-1304.1182000000001
-1307.0835
-1304.1137666666666
-1307.0885666666666
-1304.1262666666669
-1307.1067666666668
-1304.1456666666666
-1307.1298666666664
-1304.1664666666666
-1307.1548
-1304.1889333333334
-1307.1838666666667
-1304.2185000000002
-1307.2241000000001
-1304.2656333333334
-1307.2869333333335
-1304.3446333333334
-1307.3873333333333
-1304.4759999999999
-1307.5459333333336
-1304.6702333333335
-1307.7638
-1304.9209666666666
-1308.0382333333334
-1305.2238666666665
-1308.3649666666668
-1305.5732
-1308.7374
-1305.9604
-1309.1455666666666
-1306.3736333333334
-1309.5769666666667
-1306.7997666666668
-1310.0191333333332
-1307.2271666666666
-1310.4633666666666
-1307.6501333333333
-1310.9089666666666
-1308.0721999999998
-1311.3665
-1308.5079333333333
-1311.8555
-1308.9823333333334
-1312.4012666666667
-1311.5801333333332
-1314.5993333333333
-1311.5844
-1314.5656000000001
-1311.6030333333333
-1314.5495666666668
-1311.6215666666667
-1314.54
-1311.6323333333332
-1314.5331333333334
-1311.6379
-1314.5311333333332
-1311.6464333333333
-1314.5421333333334
-1311.6715666666666
-1314.5798666666667
-1311.7307
-1314.6607333333332
-1311.8418
-1314.8008333333332
-1312.0212333333332
-1315.0140666666666
-1312.2810333333334
-1315.3080333333335
-1312.6231666666665
-1315.6793
-1313.0403333333334
-1316.1178333333335
-1313.5139
-1316.5995999999998
-1314.0144
-1317.0978333333333
-1314.5156
-1317.5893666666668
-1314.9965666666667
-1318.0556333333334
-1315.4407666666666
-1318.4819
-1315.8348333333333
-1318.8561666666665
-1316.1678333333332
-1319.1687
-1316.4314333333332
-1319.4127666666666
-1316.6215333333332
-1319.5862333333334
-1316.7411666666667
-1319.6948666666667
-1316.8088
-1319.7596666666666
-1316.8592333333333
-1319.8062333333335
-1316.8783
-1319.7873333333334
-1316.7980666666667
-1319.6555333333333
-1316.5809
-1319.3837666666668
-1316.2130333333334
-1318.964
-1315.6973
-1318.4026000000001
-1315.0494333333334
-1317.7196999999999
-1314.2976666666666
-1316.9473666666665
-1313.4794666666667
-1316.1247666666668
-1312.6369666666667
-1315.2942
-1311.8138999999999
-1314.4979999999998
-1311.0503666666666
-1313.7716666666668
-1310.3756666666668
-1313.1378666666667
-1309.8100666666667
-1312.6130333333333
-1309.3542
-1312.1851
-1308.9865
-1311.8383333333331
-1308.6916333333334
-1311.5596666666665
-1308.4585
-1311.3399333333332
-1308.2798
-1311.1730666666665
-1308.1511666666668
-1311.0559666666668
-1308.0716666666667
-1310.9893333333332
-1308.0448666666668
-1310.9786666666666
-1308.0795666666666
-1311.0346333333334
-1308.1888333333334
-1311.1707
-1308.3854666666666
-1311.3976
-1308.6784666666665
-1311.7243666666666
-1309.0824999999998
-1312.1669
-1309.6141333333333
-1312.7335333333333
-1310.2569666666666
-1313.3920333333333
-1310.9663
-1314.1072666666666
-1311.7081666666666
-1314.8461333333335
-1312.4486
-1315.5719
-1313.1486333333332
-1316.2438
-1313.7672333333333
-1316.8215333333335
-1314.2665666666667
-1317.2708666666667
-1314.6187
-1317.5701666666666
-1314.8131
-1317.7174
-1314.8639
-1317.7353666666666
-1314.8106
-1317.6680999999999
-1314.7132
-1317.5750333333333
-1314.6171666666667
-1317.4816666666666
-1314.527
-1317.3902
-1314.4350333333334
-1317.2933
-1314.3310999999999
-1317.1823333333334
-1314.207
-1317.0511666666669
-1314.0589333333335
-1316.8982333333333
-1313.8884666666668
-1316.727
-1313.7023666666666
-1316.5453666666665
-1313.5114
-1316.3645
-1313.3306333333333
-1316.2001666666667
-1313.1812333333335
-1316.0723
-1313.0774000000001
-1315.9872333333333
-1313.017
-1315.9417333333333
-1312.9923999999999
-1315.9286
-1312.9945
-1315.9387
-1313.0132666666666
-1315.9625999999998
-1313.0403
-1315.9937333333335
-1313.0716333333332
-1316.0299333333332
-1313.1080333333332
-1316.0735
-1313.1549333333332
-1316.1309333333331
-1313.2214000000001
-1316.2119333333333
-1313.3201666666666
-1316.3302666666668
-1313.4673666666667
-1316.5013333333334
-1313.6734666666669
-1316.7315666666666
-1313.9391666666668
-1317.0217666666667
-1314.2619333333334
-1317.3693
-1314.6365333333333
-1317.7676000000001
-1315.0536333333334
-1318.2061666666666
-1315.5014333333334
-1318.6734666666666
-1315.9683666666667
-1319.1599666666666
-1316.4469333333334
-1319.6625000000001
-1316.9377666666667
-1320.1879666666666
-1317.4534666666666
-1320.7556000000002
-1318.0162
-1321.3904666666667
-1318.6487
-1322.1153333333332
-1320.6852
-1323.6411333333333
-1320.5364666666667
-1323.4555333333333
-1320.4312
-1323.3226666666667
-1320.3594666666668
-1323.2308666666668
-1320.3122
-1323.1713666666667
-1320.2855333333332
-1323.1407666666667
-1320.2820666666667
-1323.1426
-1320.3109666666667
-1323.1862333333333
-1320.3851666666667
-1323.2833333333335
-1320.5179333333333
-1323.4449666666667
-1320.7206999999999
-1323.6795333333332
-1320.9999
-1323.9891
-1321.3533666666665
-1324.3673333333334
-1321.7707666666668
-1324.8015000000003
-1322.2342666666666
-1325.2714333333333
-1322.7202
-1325.7549666666666
-1323.2063666666666
-1326.2323333333334
-1323.6743999999999
-1326.6874
-1324.1097666666667
-1327.1071666666667
-1324.5006333333333
-1327.481
-1324.8374
-1327.8000666666665
-1325.1127
-1328.0582
-1325.3229666666668
-1328.2528
-1325.4697666666666
-1328.3863666666666
-1325.5623333333333
-1328.4676666666667
-1325.612
-1328.5005
-1325.6037666666668
-1328.4567
-1325.4977333333334
-1328.3036333333332
-1325.2643
-1328.019
-1324.8894333333335
-1327.5943
-1324.3741666666667
-1327.0357000000001
-1323.7344
-1326.3644666666667
-1322.9994666666664
-1325.6130999999998
-1322.2063
-1324.8191000000002
-1321.3948
-1324.0217333333333
-1320.6052333333332
-1323.2590666666667
-1319.8731333333333
-1322.5614
-1319.2221333333334
-1321.9463333333333
-1318.6650333333334
-1321.4233666666667
-1318.202266666667
-1320.9871333333333
-1317.8218
-1320.6271333333332
-1317.5117
-1320.3334000000002
-1317.2628
-1320.0984333333333
-1317.0688333333335
-1319.9172333333333
-1316.9262666666666
-1319.7875000000001
-1316.8348666666668
-1319.7106333333334
-1316.7989
-1319.6927
-1316.8275333333333
-1319.7441666666666
-1316.9331333333332
-1319.8773333333331
-1317.1270333333332
-1320.1020333333333
-1317.4185
-1320.4266
-1317.8168666666668
-1320.8583333333333
-1318.3277666666665
-1321.3981666666668
-1318.939
-1322.0264666666665
-1319.6204666666667
-1322.7152
-1320.3399666666667
-1323.4315333333334
-1321.061
-1324.1364999999998
-1321.7425666666666