# vtk DataFile Version 3.0
file is written by Andrei
ASCII
DATASET POLYDATA
POINTS 8914 double
0.0 600.0 -1152.444
50.0 600.0 -1151.0059
900.0 600.0 -1150.3434
950.0 600.0 -1150.6749
1000.0 600.0 -1150.9747
1050.0 600.0 -1151.2353
1100.0 600.0 -1151.4495
1150.0 600.0 -1151.6113
1200.0 600.0 -1151.715
1250.0 600.0 -1151.754
1300.0 600.0 -1151.7204
1350.0 600.0 -1151.6066
1400.0 600.0 -1151.4074
1450.0 600.0 -1151.1216
1500.0 600.0 -1150.7538
1550.0 600.0 -1150.3154
4550.0 600.0 -1150.4163
4600.0 600.0 -1150.942
4650.0 600.0 -1151.567
4700.0 600.0 -1152.3089
4750.0 600.0 -1153.1933
4800.0 600.0 -1154.2568
4850.0 600.0 -1155.544
4900.0 600.0 -1157.1016
4950.0 600.0 -1158.9784
5000.0 600.0 -1161.2291
0.0 650.0 -1162.0374
50.0 650.0 -1160.4225
100.0 650.0 -1159.1137
150.0 650.0 -1158.0878
200.0 650.0 -1157.3191
250.0 650.0 -1156.7769
300.0 650.0 -1156.4277
350.0 650.0 -1156.2408
400.0 650.0 -1156.1906
450.0 650.0 -1156.2552
500.0 650.0 -1156.4132
550.0 650.0 -1156.6435
600.0 650.0 -1156.9267
650.0 650.0 -1157.2469
700.0 650.0 -1157.591
750.0 650.0 -1157.9476
800.0 650.0 -1158.3062
850.0 650.0 -1158.6575
900.0 650.0 -1158.993
950.0 650.0 -1159.3051
1000.0 650.0 -1159.5864
1050.0 650.0 -1159.8298
1100.0 650.0 -1160.0288
1150.0 650.0 -1160.178
1200.0 650.0 -1160.272
1250.0 650.0 -1160.305
1300.0 650.0 -1160.2702
1350.0 650.0 -1160.1613
1400.0 650.0 -1159.9743
1450.0 650.0 -1159.7085
1500.0 650.0 -1159.3682
1550.0 650.0 -1158.9633
1600.0 650.0 -1158.5083
1650.0 650.0 -1158.0192
1700.0 650.0 -1157.512
1750.0 650.0 -1157.0017
1800.0 650.0 -1156.502
1850.0 650.0 -1156.0242
1900.0 650.0 -1155.5765
1950.0 650.0 -1155.1653
2000.0 650.0 -1154.795
2050.0 650.0 -1154.4687
2100.0 650.0 -1154.1884
2150.0 650.0 -1153.9551
2200.0 650.0 -1153.7698
2250.0 650.0 -1153.6339
2300.0 650.0 -1153.5496
2350.0 650.0 -1153.5193
2400.0 650.0 -1153.5462
2450.0 650.0 -1153.6326
2500.0 650.0 -1153.7806
2550.0 650.0 -1153.9903
2600.0 650.0 -1154.2593
2650.0 650.0 -1154.5817
2700.0 650.0 -1154.9482
2750.0 650.0 -1155.3445
2800.0 650.0 -1155.7522
2850.0 650.0 -1156.1507
2900.0 650.0 -1156.5212
2950.0 650.0 -1156.8484
3000.0 650.0 -1157.1216
3050.0 650.0 -1157.3359
3100.0 650.0 -1157.4924
3150.0 650.0 -1157.5961
3200.0 650.0 -1157.6544
3250.0 650.0 -1157.6755
3300.0 650.0 -1157.6676
3350.0 650.0 -1157.6378
3400.0 650.0 -1157.5919
3450.0 650.0 -1157.5347
3500.0 650.0 -1157.4702
3550.0 650.0 -1157.402
3600.0 650.0 -1157.3333
3650.0 650.0 -1157.2669
3700.0 650.0 -1157.2059
3750.0 650.0 -1157.1531
3800.0 650.0 -1157.1115
3850.0 650.0 -1157.0834
3900.0 650.0 -1157.0706
3950.0 650.0 -1157.0736
4000.0 650.0 -1157.0924
4050.0 650.0 -1157.1263
4100.0 650.0 -1157.1748
4150.0 650.0 -1157.2387
4200.0 650.0 -1157.3202
4250.0 650.0 -1157.4243
4300.0 650.0 -1157.559
4350.0 650.0 -1157.734
4400.0 650.0 -1157.9598
4450.0 650.0 -1158.2464
4500.0 650.0 -1158.6035
4550.0 650.0 -1159.0412
4600.0 650.0 -1159.5716
4650.0 650.0 -1160.2101
4700.0 650.0 -1160.9767
4750.0 650.0 -1161.8993
4800.0 650.0 -1163.0166
4850.0 650.0 -1164.3743
4900.0 650.0 -1166.0198
4950.0 650.0 -1168.0021
5000.0 650.0 -1170.3759
0.0 700.0 -1171.3077
50.0 700.0 -1169.5294
100.0 700.0 -1168.0849
150.0 700.0 -1166.9493
200.0 700.0 -1166.0938
250.0 700.0 -1165.4842
300.0 700.0 -1165.0826
350.0 700.0 -1164.8536
400.0 700.0 -1164.7686
450.0 700.0 -1164.8033
500.0 700.0 -1164.9346
550.0 700.0 -1165.1401
600.0 700.0 -1165.4001
650.0 700.0 -1165.6984
700.0 700.0 -1166.0215
750.0 700.0 -1166.3576
800.0 700.0 -1166.6962
850.0 700.0 -1167.0276
900.0 700.0 -1167.3437
950.0 700.0 -1167.6367
1000.0 700.0 -1167.8997
1050.0 700.0 -1168.1262
1100.0 700.0 -1168.3102
1150.0 700.0 -1168.4468
1200.0 700.0 -1168.5312
1250.0 700.0 -1168.5584
1300.0 700.0 -1168.5226
1350.0 700.0 -1168.4188
1400.0 700.0 -1168.2437
1450.0 700.0 -1167.997
1500.0 700.0 -1167.6825
1550.0 700.0 -1167.3091
1600.0 700.0 -1166.8892
1650.0 700.0 -1166.4369
1700.0 700.0 -1165.9664
1750.0 700.0 -1165.4915
1800.0 700.0 -1165.0245
1850.0 700.0 -1164.5759
1900.0 700.0 -1164.154
1950.0 700.0 -1163.7647
2000.0 700.0 -1163.4128
2050.0 700.0 -1163.1017
2100.0 700.0 -1162.8333
2150.0 700.0 -1162.6092
2200.0 700.0 -1162.4303
2250.0 700.0 -1162.2979
2300.0 700.0 -1162.2141
2350.0 700.0 -1162.1808
2400.0 700.0 -1162.2003
2450.0 700.0 -1162.2744
2500.0 700.0 -1162.4044
2550.0 700.0 -1162.5899
2600.0 700.0 -1162.8284
2650.0 700.0 -1163.1145
2700.0 700.0 -1163.4397
2750.0 700.0 -1163.7916
2800.0 700.0 -1164.1541
2850.0 700.0 -1164.5098
2900.0 700.0 -1164.8422
2950.0 700.0 -1165.1382
3000.0 700.0 -1165.3885
3050.0 700.0 -1165.5884
3100.0 700.0 -1165.7383
3150.0 700.0 -1165.8419
3200.0 700.0 -1165.9048
3250.0 700.0 -1165.9336
3300.0 700.0 -1165.9351
3350.0 700.0 -1165.9153
3400.0 700.0 -1165.8794
3450.0 700.0 -1165.8318
3500.0 700.0 -1165.7765
3550.0 700.0 -1165.7169
3600.0 700.0 -1165.6561
3650.0 700.0 -1165.597
3700.0 700.0 -1165.5421
3750.0 700.0 -1165.4942
3800.0 700.0 -1165.4559
3850.0 700.0 -1165.4295
3900.0 700.0 -1165.4166
3950.0 700.0 -1165.418
4000.0 700.0 -1165.4341
4050.0 700.0 -1165.4648
4100.0 700.0 -1165.5101
4150.0 700.0 -1165.5708
4200.0 700.0 -1165.6494
4250.0 700.0 -1165.7508
4300.0 700.0 -1165.8822
4350.0 700.0 -1166.0532
4400.0 700.0 -1166.274
4450.0 700.0 -1166.5549
4500.0 700.0 -1166.9067
4550.0 700.0 -1167.3414
4600.0 700.0 -1167.8735
4650.0 700.0 -1168.5208
4700.0 700.0 -1169.3054
4750.0 700.0 -1170.2572
4800.0 700.0 -1171.4165
4850.0 700.0 -1172.83
4900.0 700.0 -1174.5457
4950.0 700.0 -1176.6126
5000.0 700.0 -1179.0849
0.0 750.0 -1180.2258
50.0 750.0 -1178.2986
100.0 750.0 -1176.7312
150.0 750.0 -1175.4961
200.0 750.0 -1174.5614
250.0 750.0 -1173.8893
300.0 750.0 -1173.4376
350.0 750.0 -1173.1674
400.0 750.0 -1173.047
450.0 750.0 -1173.0503
500.0 750.0 -1173.1528
550.0 750.0 -1173.3317
600.0 750.0 -1173.5669
650.0 750.0 -1173.8419
700.0 750.0 -1174.143
750.0 750.0 -1174.4583
800.0 750.0 -1174.7769
850.0 750.0 -1175.0888
900.0 750.0 -1175.3858
950.0 750.0 -1175.6604
1000.0 750.0 -1175.9058
1050.0 750.0 -1176.1158
1100.0 750.0 -1176.2851
1150.0 750.0 -1176.4093
1200.0 750.0 -1176.4843
1250.0 750.0 -1176.5058
1300.0 750.0 -1176.469
1350.0 750.0 -1176.3698
1400.0 750.0 -1176.2057
1450.0 750.0 -1175.9767
1500.0 750.0 -1175.6861
1550.0 750.0 -1175.3417
1600.0 750.0 -1174.9545
1650.0 750.0 -1174.5368
1700.0 750.0 -1174.1013
1750.0 750.0 -1173.6604
1800.0 750.0 -1173.2256
1850.0 750.0 -1172.8065
1900.0 750.0 -1172.4109
1950.0 750.0 -1172.0448
2000.0 750.0 -1171.7128
2050.0 750.0 -1171.4182
2100.0 750.0 -1171.1633
2150.0 750.0 -1170.9493
2200.0 750.0 -1170.7776
2250.0 750.0 -1170.6492
2300.0 750.0 -1170.5659
2350.0 750.0 -1170.5294
2400.0 750.0 -1170.5415
2450.0 750.0 -1170.6034
2500.0 750.0 -1170.7159
2550.0 750.0 -1170.8784
2600.0 750.0 -1171.0881
2650.0 750.0 -1171.3402
2700.0 750.0 -1171.6271
2750.0 750.0 -1171.9377
2800.0 750.0 -1172.2583
2850.0 750.0 -1172.5736
2900.0 750.0 -1172.8699
2950.0 750.0 -1173.1356
3000.0 750.0 -1173.3626
3050.0 750.0 -1173.5468
3100.0 750.0 -1173.6881
3150.0 750.0 -1173.7892
3200.0 750.0 -1173.8542
3250.0 750.0 -1173.8885
3300.0 750.0 -1173.8975
3350.0 750.0 -1173.8861
3400.0 750.0 -1173.859
3450.0 750.0 -1173.8201
3500.0 750.0 -1173.7729
3550.0 750.0 -1173.7209
3600.0 750.0 -1173.667
3650.0 750.0 -1173.6138
3700.0 750.0 -1173.5638
3750.0 750.0 -1173.5195
3800.0 750.0 -1173.4833
3850.0 750.0 -1173.4574
3900.0 750.0 -1173.4435
3950.0 750.0 -1173.4426
4000.0 750.0 -1173.4553
4050.0 750.0 -1173.482
4100.0 750.0 -1173.5231
4150.0 750.0 -1173.5797
4200.0 750.0 -1173.6544
4250.0 750.0 -1173.7517
4300.0 750.0 -1173.8788
4350.0 750.0 -1174.0448
4400.0 750.0 -1174.2596
4450.0 750.0 -1174.5338
4500.0 750.0 -1174.879
4550.0 750.0 -1175.3086
4600.0 750.0 -1175.8391
4650.0 750.0 -1176.4902
4700.0 750.0 -1177.2858
4750.0 750.0 -1178.2574
4800.0 750.0 -1179.4463
4850.0 750.0 -1180.9003
4900.0 750.0 -1182.6676
4950.0 750.0 -1184.7972
5000.0 750.0 -1187.3434
0.0 800.0 -1188.7618
50.0 800.0 -1186.7029
100.0 800.0 -1185.0273
150.0 800.0 -1183.7047
200.0 800.0 -1182.7003
250.0 800.0 -1181.9726
300.0 800.0 -1181.4756
350.0 800.0 -1181.1668
400.0 800.0 -1181.0121
450.0 800.0 -1180.984
500.0 800.0 -1181.0571
550.0 800.0 -1181.2084
600.0 800.0 -1181.4177
650.0 800.0 -1181.6686
700.0 800.0 -1181.9474
750.0 800.0 -1182.2418
800.0 800.0 -1182.5403
850.0 800.0 -1182.8332
900.0 800.0 -1183.1116
950.0 800.0 -1183.3683
1000.0 800.0 -1183.5965
1050.0 800.0 -1183.7905
1100.0 800.0 -1183.9455
1150.0 800.0 -1184.0575
1200.0 800.0 -1184.1231
1250.0 800.0 -1184.1387
1300.0 800.0 -1184.1006
1350.0 800.0 -1184.0055
1400.0 800.0 -1183.8513
1450.0 800.0 -1183.6384
1500.0 800.0 -1183.3698
1550.0 800.0 -1183.0522
1600.0 800.0 -1182.6954
1650.0 800.0 -1182.3102
1700.0 800.0 -1181.908
1750.0 800.0 -1181.4998
1800.0 800.0 -1181.0963
1850.0 800.0 -1180.7065
1900.0 800.0 -1180.3377
1950.0 800.0 -1179.9955
2000.0 800.0 -1179.6843
2050.0 800.0 -1179.4074
2100.0 800.0 -1179.1667
2150.0 800.0 -1178.9638
2200.0 800.0 -1178.7996
2250.0 800.0 -1178.6753
2300.0 800.0 -1178.5924
2350.0 800.0 -1178.5524
2400.0 800.0 -1178.5568
2450.0 800.0 -1178.6065
2500.0 800.0 -1178.702
2550.0 800.0 -1178.8424
2600.0 800.0 -1179.0251
2650.0 800.0 -1179.2456
2700.0 800.0 -1179.497
2750.0 800.0 -1179.7697
2800.0 800.0 -1180.0514
2850.0 800.0 -1180.3294
2900.0 800.0 -1180.5916
2950.0 800.0 -1180.8283
3000.0 800.0 -1181.0326
3050.0 800.0 -1181.2007
3100.0 800.0 -1181.3322
3150.0 800.0 -1181.429
3200.0 800.0 -1181.4943
3250.0 800.0 -1181.5322
3300.0 800.0 -1181.5469
3350.0 800.0 -1181.5425
3400.0 800.0 -1181.5228
3450.0 800.0 -1181.4912
3500.0 800.0 -1181.451
3550.0 800.0 -1181.4053
3600.0 800.0 -1181.3569
3650.0 800.0 -1181.3082
3700.0 800.0 -1181.2617
3750.0 800.0 -1181.2196
3800.0 800.0 -1181.1843
3850.0 800.0 -1181.1578
3900.0 800.0 -1181.1418
3950.0 800.0 -1181.1377
4000.0 800.0 -1181.1462
4050.0 800.0 -1181.1682
4100.0 800.0 -1181.2042
4150.0 800.0 -1181.2559
4200.0 800.0 -1181.3257
4250.0 800.0 -1181.4183
4300.0 800.0 -1181.5404
4350.0 800.0 -1181.7007
4400.0 800.0 -1181.9091
[...]
CELL_DATA 17450
SCALARS Z double 1
LOOKUP_TABLE default
-1155.1624333333332
-1157.8219333333334
-1156.8473666666666
-1155.9979666666666
-1153.3371
-1156.3243333333332
-1153.6515666666667
-1156.6220666666666
-1153.9321333333335
-1156.8838333333333
-1154.1715333333332
-1157.1027000000001
-1154.3632
-1157.2727
-1154.5014333333336
-1157.3883333333333
-1154.5803333333333
-1157.4436666666668
-1154.5931333333335
-1157.4318666666668
-1154.5324
-1157.3460333333333
-1154.3917666666666
-1157.181
-1154.1677666666667
-1156.9348
-1153.8613
-1156.6101666666666
-1153.4791333333333
-1156.2156333333332
-1155.9289999999999
-1156.0203333333332
-1153.4665
-1156.5182666666667
-1154.0268666666668
-1157.1162333333334
-1154.6953333333333
-1157.8319
-1155.4929666666667
-1158.6897666666666
-1156.4498
-1159.7242333333334
-1157.6058
-1160.9783
-1159.0066333333334
-1162.4985666666666
-1160.6999333333333
-1164.3334333333332
-1162.7365333333332
-1166.5357
-1164.5892000000001
-1167.0865333333331
-1163.0218666666667
-1165.576
-1161.7621333333334
-1164.374
-1160.7854
-1163.4540666666664
-1160.0632666666668
-1162.7849666666668
-1159.5629333333334
-1162.3315
-1159.2503666666667
-1162.059
-1159.095
-1161.9376
-1159.0714666666668
-1161.9423666666667
-1159.1572333333334
-1162.0503666666666
-1159.3304333333333
-1162.2394000000002
-1159.5701
-1162.4889666666668
-1159.8579
-1162.7818
-1160.1787666666667
-1163.1036333333334
-1160.5200333333335
-1163.4422333333334
-1160.8704666666665
-1163.7866666666666
-1161.2199666666668
-1164.1271
-1161.5593666666666
-1164.4547666666665
-1161.8806
-1164.7618333333332
-1162.1760666666667
-1165.0409333333334
-1162.4386333333334
-1165.2852333333333
-1162.6616000000001
-1165.4884
-1162.839
-1165.6449999999998
-1162.9656
-1165.75
-1163.0360666666666
-1165.7982
-1163.0445333333334
-1165.7837333333334
-1162.9847
-1165.7008999999998
-1162.8514666666667
-1165.5456000000001
-1162.6421666666665
-1165.3164
-1162.3579
-1165.0159
-1162.0046666666665
-1164.6516333333332
-1161.5935666666667
-1164.2355333333333
-1161.1389
-1163.7817666666667
-1160.6560333333334
-1163.3050999999998
-1160.1600333333333
-1162.8198666666667
-1159.6650666666667
-1162.3393333333333
-1159.1835666666666
-1161.8748666666668
-1158.7255333333333
-1161.4354666666668
-1158.2985999999999
-1161.028
-1157.9083333333333
-1160.6575
-1157.5588333333333
-1160.3277333333333
-1157.2529333333332
-1160.0411333333334
-1156.9922666666669
-1159.7992000000002
-1156.7780333333333
-1159.6031
-1156.6113333333333
-1159.4540333333334
-1156.4938000000002
-1159.3538666666666
-1156.4276666666667
-1159.3047333333334
-1156.4154333333333
-1159.3091000000002
-1156.4597
-1159.3691
-1156.5625333333335
-1159.4864666666665
-1156.7250999999999
-1159.6615333333332
-1156.9465
-1159.8925333333334
-1157.2231333333332
-1160.1748666666665
-1157.5481333333335
-1160.5007999999998
-1157.9107999999999
-1160.8585999999998
-1158.2960999999998
-1161.2326333333333
-1158.6856666666665
-1161.6048666666666
-1159.0605666666668
-1161.9577333333334
-1159.4039333333333
-1162.2762666666667
-1159.7027333333333
-1162.5494333333334
-1159.9486666666667
-1162.7709333333335
-1160.1389000000001
-1162.9397000000001
-1160.2756
-1163.0587666666668
-1160.3641333333333
-1163.1336999999999
-1160.4115666666667
-1163.1713
-1160.4255666666668
-1163.1787666666667
-1160.4134999999999
-1163.1627333333333
-1160.3816666666667
-1163.1288666666667
-1160.3353333333334
-1163.0819666666666
-1160.2789
-1163.0261666666665
-1160.2162333333333
-1162.9651333333334
-1160.1507333333332
-1162.9021
-1160.0854333333334
-1162.84
-1160.0232666666668
-1162.7816666666665
-1159.9670333333331
-1162.7297999999998
-1159.9196
-1162.6872
-1159.8836
-1162.6562666666666
-1159.8611666666666
-1162.6389
-1159.8536000000001
-1162.6360666666667
-1159.8613333333333
-1162.6481666666666
-1159.8842666666667
-1162.6750666666667
-1159.9219666666665
-1162.7165666666667
-1159.9745333333333
-1162.7731999999999
-1160.0432333333335
-1162.8468
-1160.1313
-1162.9415
-1160.2447
-1163.064
-1160.3917333333334
-1163.2231333333334
-1160.5823333333333
-1163.4289999999999
-1160.8267333333333
-1163.6917666666666
-1161.1349333333335
-1164.0217
-1161.517133333333
-1164.4297666666664
-1161.9847333333335
-1164.9288333333334
-1162.5517333333335
-1165.5348000000001
-1163.2358666666667
-1166.2676333333332
-1164.0604666666666
-1167.1539666666667
-1165.0577
-1168.2301
-1166.2691333333335
-1169.5402666666666
-1167.7413666666666
-1171.1318333333331
-1169.522533333333
-1173.0534666666665
-1171.6635333333334
-1175.3578
-1173.6876333333332
-1176.0179333333333
-1171.9709666666668
-1174.3715666666667
-1170.5884666666668
-1173.0588666666665
-1169.5130666666666
-1172.0504333333333
-1168.7131333333334
-1171.3116333333335
-1168.1520333333335
-1170.8031666666666
-1167.7912666666666
-1170.4862
-1167.5965333333334
-1170.3276666666668
-1167.5396333333333
-1170.3002000000001
-1167.5960666666667
-1170.3792333333333
-1167.7425
-1170.5415333333333
-1167.9573
-1170.7662333333335
-1168.2218
-1171.0357333333334
-1168.5205999999998
-1171.3354666666667
-1168.8407
-1171.6529666666668
-1169.1707
-1171.9771333333335
-1169.5002333333334
-1172.2977666666668
-1169.8200333333332
-1172.6061
-1170.1220666666666
-1172.8943
-1170.3989333333332
-1173.1553000000001
-1170.6439
-1173.3826
-1170.8507333333334
-1173.5703666666666
-1171.0140333333331
-1173.7137333333333
-1171.1290999999999
-1173.8082666666667
-1171.1913
-1173.8495
-1171.1956
-1173.8324666666667
-1171.1368
-1173.7525333333333
-1171.0107666666665
-1173.6064
-1170.8154666666667
-1173.3931333333333
-1170.5520666666666
-1173.1151
-1170.2259
-1172.7789666666665
-1169.8466666666666
-1172.3951333333332
-1169.4268666666667
-1171.9760666666668
-1168.9800333333333
-1171.5348333333334
-1168.5197333333333
-1171.0844
-1168.0588
-1170.6368333333332
-1167.6086666666667
-1170.2026666666668
-1167.1788
-1169.7904666666666
-1166.7765333333334
-1169.4068
-1166.4074333333333
-1169.0568
-1166.0757666666668
-1168.7442333333336
-1165.7844000000002
-1168.4716
-1165.5352666666668
-1168.2406
-1165.3296
-1168.0523999999998
-1165.1686
-1167.9082333333333
-1165.0537333333334
-1167.8097333333335
-1164.9869333333334
-1167.7587
-1164.9701666666667
-1167.7570666666666
-1165.0054
-1167.8064333333334
-1165.0940666666668
-1167.9079
-1165.2367333333332
-1168.0613999999998
-1165.4322333333332
-1168.2649666666666
-1165.677
-1168.5142666666668
-1165.9648
-1168.8023333333333
-1166.2861333333333
-1169.1188
-1166.6278
-1169.4500333333333
-1166.9740666666667
-1169.7805666666666
-1167.3085333333333
-1170.0952333333332
-1167.6167666666668
-1170.3812333333335
-1167.8874333333333
-1170.6289
-1168.1131666666668
-1170.8326
-1168.2911666666666
-1170.9910666666667
-1168.4227666666668
-1171.1064
-1168.5119666666667
-1171.1827333333333
-1168.5642
-1171.2254333333333
-1168.5857333333333
-1171.2403666666667
-1168.5826333333332
-1171.2329666666665
-1168.5602666666666
-1171.2081666666666
-1168.5234
-1171.1703
-1168.4761333333333
-1171.1231666666665
-1168.4221
-1171.0702333333334
-1168.3646333333334
-1171.0146666666667
-1168.3066999999999
-1170.9592666666667
-1168.2509666666665
-1170.9065666666665
-1168.2000333333333
-1170.8591666666669
-1168.1565333333335
-1170.8195666666668
-1168.1229
-1170.7900666666667
-1168.1011666666666
-1170.7725
-1168.0927
-1170.7680333333335
-1168.0982333333334
-1170.7773333333332
-1168.1180666666667
-1170.8007
-1168.1523
-1170.8384
-1168.2013333333332
-1170.8912
-1168.2666333333334
-1170.9611666666667
-1168.3515333333332
-1171.0523
-1168.4615666666666
-1171.1709
-1168.6047333333333
-1171.3256000000001
-1168.7906666666665
-1171.5261333333333
-1169.0294999999999
-1171.7827666666667
-1169.3318000000002
-1172.1065
-1169.7090333333333
-1172.5096666666668
-1170.1745
-1173.0070666666668
-1170.7444666666668
-1173.6166999999998
-1171.4388
-1174.3604666666668
-1172.2828
-1175.2668
-1173.3103666666666
-1176.3734000000002
-1174.5642666666665
-1177.7255333333333
-1176.0919999999999
-1179.3711999999998
-1177.9419666666665
-1181.3591333333331
-1180.1649
-1183.7418333333333
-1182.4287333333334
-1184.5877666666668
-1180.5775666666668
-1182.8204666666668
-1179.0848666666668
-1181.4093666666668
-1177.9207333333334
-1180.3221333333333
-1177.0503333333334
-1179.5207333333335
-1176.4331666666667
-1178.9619333333333
-1176.0268666666668
-1178.6032666666667
-1175.7937333333334
-1178.4086333333332
-1175.7031333333334
-1178.3488
-1175.7290333333333
-1178.3979666666667
-1175.8472
-1178.5324
-1176.0356666666667
-1178.731
-1176.2755
-1178.9760666666666
-1176.5511666666666
-1179.253
-1176.8495666666668
-1179.5491666666667
-1177.1589999999999
-1179.853
-1177.4686666666666
-1180.1541
-1177.7692666666667
-1180.4435333333333
-1178.0526
-1180.7134333333333
-1178.3115
-1180.9568666666667
-1178.5393666666666
-1181.1676
-1178.7304666666666
-1181.3403666666666
-1178.8799666666666
-1181.4707666666666
-1178.9837
-1181.5549666666666
-1179.0377333333333
-1181.5892000000001
-1179.0378333333333
-1181.5694333333333
-1178.9797999999998
-1181.4919666666667
-1178.8603333333333
-1181.3541666666667
-1178.6779
-1181.1554666666668
-1178.4337333333333
-1180.8981
-1178.1325333333332
-1180.5879
-1177.7828
-1180.2340333333334
-1177.3955666666668
-1179.8474666666668
-1176.9827666666667
-1179.4398333333331
-1176.5565666666664
-1179.0227333333332
-1176.1286
-1178.6072333333332
-1175.7094666666665
-1178.2031
-1175.3079666666665
-1177.8183666666666
-1174.9311333333333
-1177.4593333333332
-1174.5843666666667
-1177.1308666666666
-1174.2717666666667
-1176.8366333333333
-1173.9963
-1176.5791333333334
-1173.7597666666668
-1176.3599333333334
-1173.5635666666665
-1176.1803333333332
-1173.4088
-1176.0413666666666
-1173.2968
-1175.9445333333335
-1173.2292333333332
-1175.8914
-1173.2077666666667
-1175.8835666666666
-1173.2339
-1175.9222333333335
-1173.3086
-1176.0081333333335
-1173.4321
-1176.1409333333334
-1173.6029666666666
-1176.3185333333333
-1173.8178
-1176.5369666666668
-1174.0709666666664
-1176.7899
-1174.3539333333333
-1177.0681333333334
-1174.6552333333334
-1177.3598
-1174.9610999999998
-1177.6514666666665
-1175.2576333333334
-1177.9303
-1175.5323666666666
-1178.1851666666666
-1175.7755
-1178.4078333333332
-1175.9806666666666
-1178.5933666666667
-1176.1452000000002
-1178.7403333333334
-1176.2698333333335
-1178.8501333333334
-1176.3574666666666
-1178.9258333333335
-1176.4123333333334
-1178.9716666666666
-1176.4394
-1178.9922
-1176.4435
-1178.9918333333333
-1176.4292
-1178.9747666666667
-1176.4006333333334
-1178.9447
-1176.3614
-1178.9050333333332
-1176.3149333333333
-1178.8590666666666
-1176.2643999999998
-1178.8097333333333
-1176.2125666666668
-1178.7596333333333
-1176.1619333333333
-1178.7112333333332
-1176.115
-1178.6669333333332
-1176.0741333333333
-1178.6290666666666
-1176.0416666666667
-1178.5998333333334
-1176.0195666666668
-1178.5810333333336
-1176.0093
-1178.5740333333333
-1176.0118666666667
-1178.5797333333333
-1176.0278333333333
-1178.5988
-1176.0577666666668
-1178.6318333333336
-1176.1023333333333
-1178.6799333333336
-1176.1633333333334
-1178.7453333333335
-1176.2439333333332
-1178.8319000000001
-1176.3496
-1178.9458333333334
-1176.488
-1179.0953
-1176.6683666666668
-1179.2898000000002
-1176.9008333333334
-1179.5396
-1177.1962333333333
-1179.8560666666665
-1177.5669666666665
-1180.2526
-1178.0278666666666
-1180.7455333333335
-1178.5969666666667
-1181.3544333333332
-1179.2958333333333
-1182.1027000000001
-1180.1513333333335
-1183.0201
-1181.1986
-1184.1454
-1182.4814666666668
-1185.5247333333334
-1184.048
-1187.2064
-1185.9467666666667
-1189.2393
-1188.2286000000001
-1191.6761333333334
-1190.7842
-1192.7693666666667
-1188.8158333333333
-1190.8984333333335
-1187.2275666666667
-1189.4034666666666
-1185.9866666666667
-1188.2493
-1185.0551666666668
-1187.3945999999999
-1184.3889333333334
-1186.7924333333333
-1183.9418333333333
-1186.3967666666667
-1183.6731
-1186.1689666666666
-1183.5501666666667
-1186.0782
-1183.5457666666666
-1186.0979
-1183.6353000000001
-1186.2042333333334
-1183.7966666666666
-1186.3762
-1184.0111
-1186.5963666666667
-1184.2631666666666
-1186.8501666666668
-1184.5396
-1187.1247666666666
-1184.8283333333331
-1187.4082666666666
-1185.1183666666666
-1187.6900666666668
-1185.4000666666668
-1187.9608333333333
-1185.6651333333332
-1188.2127333333335
-1185.9064
-1188.4388666666666
-1186.1175666666668
-1188.6333666666667
-1186.2933
-1188.7913333333333
-1186.4291999999998
-1188.9088333333332
-1186.5216666666665
-1188.9826999999998
-1186.5674666666666
-1189.0098
-1186.5631333333333
-1188.9869666666666
-1186.5054333333335
-1188.911366666667
-1186.3917333333336
-1188.780966666667
-1186.2209666666668
-1188.5955000000001
-1185.9943666666666
-1188.3570666666667
-1185.7161666666668
-1188.0708333333334
-1185.3938
-1187.7448333333334
-1185.0369666666666
-1187.3887
-1184.6562666666666
-1187.0128333333334
-1184.2625666666665
-1186.6276
-1183.8663999999999
-1186.2431666666669
-1183.4776333333332
-1185.8686
-1183.1044666666667
-1185.5113666666666
-1182.7534666666668
-1185.1773333333333
-1182.4297
-1184.8710333333333
-1182.1370666666667
-1184.5959333333333
-1181.8783333333333
-1184.3542666666665
-1181.6552333333334
-1184.1475333333333
-1181.469
-1183.9767666666667
-1181.3206666666667
-1183.8430333333333
-1181.2114666666669
-1183.7476666666666
-1181.1429
-1183.6921
-1181.1164
-1183.6777000000002
-1181.1332
-1183.7055
-1181.1940666666667
-1183.7760333333333
-1181.2989333333333
-1183.8888
-1181.4463666666668
-1184.0418666666667
-1181.6332
-1184.2314999999999
-1181.8542
-1184.4519
-1182.1018000000001
-1184.6949333333332
-1182.3658333333333
-1184.9501666666667
-1182.6345
-1185.2061
-1182.8957333333335
-1185.4515666666666
-1183.1389333333334
-1185.6772333333336
-1183.3558
-1185.8760333333332
-1183.5407666666667
-1186.0436
-1183.6913333333332
-1186.1785666666665
-1183.8078666666668
-1186.2817666666667
-1183.8924
-1186.3555
-1183.9482666666668
-1186.4029333333333
-1183.9791333333335
-1186.4275
-1183.9889
-1186.4327333333333
-1183.9812333333332
-1186.4219666666668
-1183.9595666666667
-1186.3983333333333
-1183.9270999999999
-1186.3648333333333
-1183.8869
-1186.3244
-1183.8419000000001
-1186.2798333333333
-1183.7947333333334
-1186.2336333333335
-1183.7478333333333
-1186.1881333333333
-1183.7034666666666
-1186.1455333333333
-1183.6639333333333
-1186.1081333333334
-1183.6314333333332
-1186.0779666666667
-1183.6078333333335
-1186.0568666666668
-1183.5948
-1186.0463666666667
-1183.5934666666665
-1186.0475999999999
-1183.6048333333333
-1186.0616
-1183.6296333333332
-1186.0891666666666
-1183.6689666666668
-1186.1318333333334
-1183.7248
-1186.1918666666668
-1183.8003666666666
-1186.2731999999999
-1183.9009666666668
-1186.3818
-1184.0339666666669
-1186.5256
-1184.2083666666667
-1186.7137333333333
-1184.4339333333335
-1186.9561999999999
-1184.7216999999998
-1187.2646333333334
-1185.0846333333334
-1187.6530333333333
-1185.5386666666666
-1188.1387333333334
-1186.1030666666668
-1188.7424333333333
-1186.8006666666668
-1189.4886000000001
-1187.6594000000002
-1190.4078666666667
-1188.7153666666666
-1191.5397
-1190.013
-1192.9307
-1191.6008333333332
-1194.6294666666665
-1193.5275666666669
-1196.6851
-1195.8443666666665
-1199.1509333333333
-1198.7285000000002
-1200.5395666666666
-1196.6630333333333
-1198.5849333333333
-1194.9962333333333
-1197.0229666666667
-1193.6928333333333
-1195.8161
-1192.7120000000002
-1194.9197666666666
-1192.0058666666666
-1194.2832666666666
-1191.5247666666667
-1193.8572666666666
-1191.2251333333331
-1193.6008333333332
-1191.0727
-1193.4819
-1191.0395333333333
-1193.4736666666668
-1191.1009666666666
-1193.5524666666668
-1191.2352666666666
-1193.6979333333331
-1191.4241333333332
-1193.8931
-1191.6523333333332
-1194.1235666666666
-1191.9065666666665
-1194.3764
-1192.1745333333333
-1194.6394666666667
-1192.4449000000002
-1194.9018333333333
-1192.7077666666667
-1195.1539333333333
-1192.9546
-1195.3877666666667
-1193.1783666666668
-1195.5966666666666
-1193.3729666666666
-1195.7748666666666
-1193.5333
-1195.9178666666667
-1193.6555333333333
-1196.0223333333333
-1193.7366666666667
-1196.0856333333334
-1193.7740000000001
-1196.1053
-1193.7649333333336
-1196.079066666667
-1193.7070333333334
-1196.0047333333334
-1193.5982999999999
-1195.8808666666666
-1193.4380666666666
-1195.7074333333333
-1193.2275666666665
-1195.4864666666665
-1192.9706333333334
-1195.2224666666668
-1192.6737
-1194.9223666666667
-1192.3452333333335
-1194.5946999999999
-1191.9947333333332
-1194.2487666666666
-1191.6319
-1193.8939333333333
-1191.2664000000002
-1193.5395
-1190.9072333333334
-1193.1937666666665
-1190.5620333333334
-1192.8637333333334
-1190.2369333333334
-1192.5548
-1189.9365333333333
-1192.2710666666667
-1189.6644333333334
-1192.0156
-1189.4230333333333
-1191.7902333333334
-1189.2137666666667
-1191.5962
-1189.0377333333336
-1191.4344
-1188.8958
-1191.3057333333334
-1188.7891666666667
-1191.2114666666664
-1188.7191666666665
-1191.1529666666665
-1188.6872
-1191.1315333333334
-1188.6943333333331
-1191.1481666666666
-1188.7413
-1191.2034
-1188.8280000000002
-1191.2968
-1188.9531
-1191.4265333333333
-1189.1136
-1191.5891666666666
-1189.3047666666666
-1191.7794666666666
-1189.5197333333333
-1191.9901666666665
-1189.7497
-1192.2122000000002
-1189.9842666666666
-1192.4354333333333
-1190.2131
-1192.6504
-1190.4271666666666
-1192.8491000000001
-1190.6193999999998
-1193.0255333333334
-1190.785
-1193.1759333333332
-1190.9217666666666
-1193.299
-1191.0297
-1193.3951666666665
-1191.1103333333333
-1193.4661333333333
-1191.1659666666667
-1193.5140333333331
-1191.1993666666667
-1193.5414333333333
-1191.2134
-1193.5509
-1191.2109666666668
-1193.5450666666666
-1191.1948333333332
-1193.5264666666665
-1191.1677
-1193.4976333333334
-1191.1322666666667
-1193.4612666666667
-1191.0913333333335
-1193.4200333333335
-1191.0474333333334
-1193.3763333333334
-1191.0028333333332
-1193.3323
-1190.9596666666669
-1193.2901
-1190.9201666666668
-1193.2518666666667
-1190.8863666666666
-1193.2196000000001
-1190.860233333333
-1193.1951999999999
-1190.8434
-1193.1802333333335
-1190.8373333333332
-1193.1761999999999
-1190.8432333333333
-1193.1842333333334
-1190.8621333333333
-1193.2055666666668
-1190.8954666666666
-1193.2419666666667
-1190.9453999999998
-1193.2959333333333
-1191.0152333333333
-1193.3714
-1191.1101999999998
-1193.4743
-1191.2375333333332
-1193.6121999999998
-1191.4056333333335
-1193.7937333333332
-1191.6240999999998
-1194.0287333333333
-1191.9037666666666
-1194.3285333333333
-1192.2578
-1194.7074333333333
-1192.7027333333333
-1195.1832666666667
-1193.2586333333334
-1195.7773666666667
-1193.9491
-1196.5147333333334
-1194.8027
-1197.4264
-1195.8558999999998
-1198.5520666666666
-1197.1535666666666
-1199.9386333333334
-1198.7443999999998
-1201.6347333333333
-1200.6773333333333
-1203.6899666666668
-1203.0042999999998
-1206.1586666666667
-1206.2403666666667
-1207.8793333333333
-1204.1004333333333
-1205.8632666666665
-1202.3745
-1204.2536333333335
-1201.0253666666667
-1203.0106666666668
-1200.0091666666667
-1202.0864666666666
-1199.2744666666667
-1201.4266666666665
-1198.7679666666666
-1200.9786333333332
-1198.4436333333333
-1200.6995
-1198.2659
-1200.5563333333334
-1198.2064666666668
-1200.5224333333333
-1198.2411333333332
-1200.5749666666668
-1198.3489666666667
-1200.6944666666668
-1198.5124
-1200.8647
-1198.7166333333334
-1201.0716666666667
-1198.9484333333332
-1201.3024666666668
-1199.1953666666668
-1201.5448
-1199.4458333333332
-1201.7873666666667
-1199.6895333333332
-1202.0203666666666
-1199.9179333333334
-1202.2358333333334
-1200.1239666666668
-1202.4270333333334
-1200.3016333333335
-1202.5885
-1200.4462999999998
-1202.7161999999998
-1200.5545666666667
-1202.8072333333332
-1200.6239666666668
-1202.8595666666668
-1200.6525333333332
-1202.8714666666667
-1200.6383666666668
-1202.8413
-1200.5797
-1202.7676
-1200.4752
-1202.6495
-1200.3245333333332
-1202.4871333333333
-1200.1289333333332
-1202.2823333333333
-1199.8917
-1202.0389666666667
-1199.6184
-1201.7630333333334
-1199.3164666666664
-1201.4620666666667
-1198.9943333333333