# vtk DataFile Version 3.0
file is written by Andrei
ASCII
DATASET POLYDATA
POINTS 5151 double
0.0 0.0 -1185.434
50.0 0.0 -1185.8019
100.0 0.0 -1186.1284
150.0 0.0 -1186.369
200.0 0.0 -1186.4998
250.0 0.0 -1186.5178
300.0 0.0 -1186.4442
350.0 0.0 -1186.3191
400.0 0.0 -1186.1853
450.0 0.0 -1186.0864
500.0 0.0 -1186.0668
550.0 0.0 -1186.1679
600.0 0.0 -1186.4155
650.0 0.0 -1186.817
700.0 0.0 -1187.357
750.0 0.0 -1187.9922
800.0 0.0 -1188.6659
850.0 0.0 -1189.3238
900.0 0.0 -1189.9324
950.0 0.0 -1190.4671
1000.0 0.0 -1190.9088
1050.0 0.0 -1191.2455
1100.0 0.0 -1191.4796
1150.0 0.0 -1191.6285
1200.0 0.0 -1191.7202
1250.0 0.0 -1191.785
1300.0 0.0 -1191.8325
1350.0 0.0 -1191.8106
1400.0 0.0 -1191.6562
1450.0 0.0 -1191.3204
1500.0 0.0 -1190.781
1550.0 0.0 -1190.0479
1600.0 0.0 -1189.1522
1650.0 0.0 -1188.1339
1700.0 0.0 -1187.0445
1750.0 0.0 -1185.9494
1800.0 0.0 -1184.9229
1850.0 0.0 -1184.028
1900.0 0.0 -1183.3053
1950.0 0.0 -1182.7654
2000.0 0.0 -1182.3887
2050.0 0.0 -1182.1362
2100.0 0.0 -1181.9694
2150.0 0.0 -1181.8629
2200.0 0.0 -1181.8033
2250.0 0.0 -1181.7839
2300.0 0.0 -1181.8049
2350.0 0.0 -1181.8751
2400.0 0.0 -1182.0108
2450.0 0.0 -1182.2339
2500.0 0.0 -1182.5697
2550.0 0.0 -1183.0415
2600.0 0.0 -1183.6561
2650.0 0.0 -1184.3969
2700.0 0.0 -1185.2338
2750.0 0.0 -1186.1306
2800.0 0.0 -1187.0463
2850.0 0.0 -1187.937
2900.0 0.0 -1188.7551
2950.0 0.0 -1189.4492
3000.0 0.0 -1189.9661
3050.0 0.0 -1190.2624
3100.0 0.0 -1190.3301
3150.0 0.0 -1190.2052
3200.0 0.0 -1189.9603
3250.0 0.0 -1189.684
3300.0 0.0 -1189.4412
3350.0 0.0 -1189.2595
3400.0 0.0 -1189.1237
3450.0 0.0 -1188.9941
3500.0 0.0 -1188.8301
3550.0 0.0 -1188.6068
3600.0 0.0 -1188.3257
3650.0 0.0 -1188.0083
3700.0 0.0 -1187.6864
3750.0 0.0 -1187.3956
3800.0 0.0 -1187.1662
3850.0 0.0 -1187.0052
3900.0 0.0 -1186.905
3950.0 0.0 -1186.8561
4000.0 0.0 -1186.8421
4050.0 0.0 -1186.8404
4100.0 0.0 -1186.8309
4150.0 0.0 -1186.8036
4200.0 0.0 -1186.7613
4250.0 0.0 -1186.7179
4300.0 0.0 -1186.6965
4350.0 0.0 -1186.7223
4400.0 0.0 -1186.814
4450.0 0.0 -1186.9736
4500.0 0.0 -1187.192
4550.0 0.0 -1187.4532
4600.0 0.0 -1187.7445
4650.0 0.0 -1188.0533
4700.0 0.0 -1188.3676
4750.0 0.0 -1188.6739
4800.0 0.0 -1188.9596
4850.0 0.0 -1189.2187
4900.0 0.0 -1189.4552
4950.0 0.0 -1189.6804
5000.0 0.0 -1189.9044
0.0 50.0 -1196.024
50.0 50.0 -1196.3268
100.0 50.0 -1196.5898
150.0 50.0 -1196.7935
200.0 50.0 -1196.9172
250.0 50.0 -1196.9572
300.0 50.0 -1196.9335
350.0 50.0 -1196.8763
400.0 50.0 -1196.8182
450.0 50.0 -1196.7939
500.0 50.0 -1196.8383
550.0 50.0 -1196.9807
600.0 50.0 -1197.2398
650.0 50.0 -1197.623
700.0 50.0 -1198.1245
750.0 50.0 -1198.6992
800.0 50.0 -1199.2985
850.0 50.0 -1199.8856
900.0 50.0 -1200.4327
950.0 50.0 -1200.9179
1000.0 50.0 -1201.3231
1050.0 50.0 -1201.6367
1100.0 50.0 -1201.8563
1150.0 50.0 -1201.9888
1200.0 50.0 -1202.0535
1250.0 50.0 -1202.0878
1300.0 50.0 -1202.1375
1350.0 50.0 -1202.1133
1400.0 50.0 -1201.9572
1450.0 50.0 -1201.6299
1500.0 50.0 -1201.1211
1550.0 50.0 -1200.4445
1600.0 50.0 -1199.627
1650.0 50.0 -1198.7036
1700.0 50.0 -1197.7204
1750.0 50.0 -1196.7338
1800.0 50.0 -1195.8028
1850.0 50.0 -1194.9787
1900.0 50.0 -1194.2978
1950.0 50.0 -1193.7729
2000.0 50.0 -1193.385
2050.0 50.0 -1193.1045
2100.0 50.0 -1192.9044
2150.0 50.0 -1192.7676
2200.0 50.0 -1192.6832
2250.0 50.0 -1192.6454
2300.0 50.0 -1192.6544
2350.0 50.0 -1192.7173
2400.0 50.0 -1192.8466
2450.0 50.0 -1193.0602
2500.0 50.0 -1193.379
2550.0 50.0 -1193.8221
2600.0 50.0 -1194.3957
2650.0 50.0 -1195.0847
2700.0 50.0 -1195.8582
2750.0 50.0 -1196.6819
2800.0 50.0 -1197.5186
2850.0 50.0 -1198.3289
2900.0 50.0 -1199.0708
2950.0 50.0 -1199.6989
3000.0 50.0 -1200.1679
3050.0 50.0 -1200.4454
3100.0 50.0 -1200.5269
3150.0 50.0 -1200.4419
3200.0 50.0 -1200.2562
3250.0 50.0 -1200.0685
3300.0 50.0 -1199.9004
3350.0 50.0 -1199.7591
3400.0 50.0 -1199.6349
3450.0 50.0 -1199.5032
3500.0 50.0 -1199.3397
3550.0 50.0 -1199.1318
3600.0 50.0 -1198.8825
3650.0 50.0 -1198.6065
3700.0 50.0 -1198.3268
3750.0 50.0 -1198.0745
3800.0 50.0 -1197.8846
3850.0 50.0 -1197.7516
3900.0 50.0 -1197.6673
3950.0 50.0 -1197.6245
4000.0 50.0 -1197.6107
4050.0 50.0 -1197.6094
4100.0 50.0 -1197.6065
4150.0 50.0 -1197.5958
4200.0 50.0 -1197.5797
4250.0 50.0 -1197.5692
4300.0 50.0 -1197.5817
4350.0 50.0 -1197.6389
4400.0 50.0 -1197.7635
4450.0 50.0 -1197.9467
4500.0 50.0 -1198.1815
4550.0 50.0 -1198.4586
4600.0 50.0 -1198.7679
4650.0 50.0 -1199.0987
4700.0 50.0 -1199.439
4750.0 50.0 -1199.7754
4800.0 50.0 -1200.0958
4850.0 50.0 -1200.394
4900.0 50.0 -1200.6719
4950.0 50.0 -1200.9386
5000.0 50.0 -1201.2015
0.0 100.0 -1206.6527
50.0 100.0 -1206.8846
100.0 100.0 -1207.1042
150.0 100.0 -1207.2845
200.0 100.0 -1207.3965
250.0 100.0 -1207.4438
300.0 100.0 -1207.4465
350.0 100.0 -1207.4285
400.0 100.0 -1207.4169
450.0 100.0 -1207.44
500.0 100.0 -1207.5259
550.0 100.0 -1207.6969
600.0 100.0 -1207.9672
650.0 100.0 -1208.3421
700.0 100.0 -1208.831
750.0 100.0 -1209.3742
800.0 100.0 -1209.9321
850.0 100.0 -1210.4758
900.0 100.0 -1210.9822
950.0 100.0 -1211.4324
1000.0 100.0 -1211.8101
1050.0 100.0 -1212.1034
1100.0 100.0 -1212.306
1150.0 100.0 -1212.4172
1200.0 100.0 -1212.4492
1250.0 100.0 -1212.4435
1300.0 100.0 -1212.5391
1350.0 100.0 -1212.5399
1400.0 100.0 -1212.3978
1450.0 100.0 -1212.0835
1500.0 100.0 -1211.5968
1550.0 100.0 -1210.955
1600.0 100.0 -1210.1834
1650.0 100.0 -1209.3156
1700.0 100.0 -1208.3948
1750.0 100.0 -1207.4714
1800.0 100.0 -1206.597
1850.0 100.0 -1205.8173
1900.0 100.0 -1205.1655
1950.0 100.0 -1204.6609
2000.0 100.0 -1204.2776
2050.0 100.0 -1203.9866
2100.0 100.0 -1203.7686
2150.0 100.0 -1203.6114
2200.0 100.0 -1203.5067
2250.0 100.0 -1203.4496
2300.0 100.0 -1203.4408
2350.0 100.0 -1203.4863
2400.0 100.0 -1203.5976
2450.0 100.0 -1203.791
2500.0 100.0 -1204.0853
2550.0 100.0 -1204.4973
2600.0 100.0 -1205.0387
2650.0 100.0 -1205.6987
2700.0 100.0 -1206.4405
2750.0 100.0 -1207.2254
2800.0 100.0 -1208.0194
2850.0 100.0 -1208.7865
2900.0 100.0 -1209.4867
2950.0 100.0 -1210.0768
3000.0 100.0 -1210.5152
3050.0 100.0 -1210.7741
3100.0 100.0 -1210.8503
3150.0 100.0 -1210.7703
3200.0 100.0 -1210.5988
3250.0 100.0 -1210.4757
3300.0 100.0 -1210.3617
3350.0 100.0 -1210.2568
3400.0 100.0 -1210.1518
3450.0 100.0 -1210.0292
3500.0 100.0 -1209.8742
3550.0 100.0 -1209.681
3600.0 100.0 -1209.4537
3650.0 100.0 -1209.2034
3700.0 100.0 -1208.9485
3750.0 100.0 -1208.7166
3800.0 100.0 -1208.5609
3850.0 100.0 -1208.4579
3900.0 100.0 -1208.3948
3950.0 100.0 -1208.3666
4000.0 100.0 -1208.3628
4050.0 100.0 -1208.3698
4100.0 100.0 -1208.3771
4150.0 100.0 -1208.3806
4200.0 100.0 -1208.3836
4250.0 100.0 -1208.3951
4300.0 100.0 -1208.4293
4350.0 100.0 -1208.5083
4400.0 100.0 -1208.6625
4450.0 100.0 -1208.8714
4500.0 100.0 -1209.1299
4550.0 100.0 -1209.4315
4600.0 100.0 -1209.7685
4650.0 100.0 -1210.1307
4700.0 100.0 -1210.5053
4750.0 100.0 -1210.8784
4800.0 100.0 -1211.2377
4850.0 100.0 -1211.5774
4900.0 100.0 -1211.8989
4950.0 100.0 -1212.2137
5000.0 100.0 -1212.5535
0.0 150.0 -1217.3632
50.0 150.0 -1217.4988
100.0 150.0 -1217.6733
150.0 150.0 -1217.8144
200.0 150.0 -1217.9007
250.0 150.0 -1217.9421
300.0 150.0 -1217.9557
350.0 150.0 -1217.9606
400.0 150.0 -1217.9794
450.0 150.0 -1218.0361
500.0 150.0 -1218.1537
550.0 150.0 -1218.3509
600.0 150.0 -1218.6396
650.0 150.0 -1219.021
700.0 150.0 -1219.4978
750.0 150.0 -1220.0179
800.0 150.0 -1220.5488
850.0 150.0 -1221.0645
900.0 150.0 -1221.5449
950.0 150.0 -1221.973
1000.0 150.0 -1222.3345
1050.0 150.0 -1222.6185
1100.0 150.0 -1222.8171
1150.0 150.0 -1222.9277
1200.0 150.0 -1222.9598
1250.0 150.0 -1222.9583
1300.0 150.0 -1223.0634
1350.0 150.0 -1223.0623
1400.0 150.0 -1222.92
1450.0 150.0 -1222.6108
1500.0 150.0 -1222.1375
1550.0 150.0 -1221.5164
1600.0 150.0 -1220.7715
1650.0 150.0 -1219.9371
1700.0 150.0 -1219.055
1750.0 150.0 -1218.1722
1800.0 150.0 -1217.3359
1850.0 150.0 -1216.586
1900.0 150.0 -1215.9489
1950.0 150.0 -1215.4617
2000.0 150.0 -1215.0836
2050.0 150.0 -1214.786
2100.0 150.0 -1214.5548
2150.0 150.0 -1214.381
2200.0 150.0 -1214.2581
2250.0 150.0 -1214.1826
2300.0 150.0 -1214.1557
2350.0 150.0 -1214.1833
2400.0 150.0 -1214.277
2450.0 150.0 -1214.4522
2500.0 150.0 -1214.7236
2550.0 150.0 -1215.0991
2600.0 150.0 -1215.6138
2650.0 150.0 -1216.2638
2700.0 150.0 -1216.9892
2750.0 150.0 -1217.7537
2800.0 150.0 -1218.5253
2850.0 150.0 -1219.2693
2900.0 150.0 -1219.9458
2950.0 150.0 -1220.5129
3000.0 150.0 -1220.9324
3050.0 150.0 -1221.1801
3100.0 150.0 -1221.2558
3150.0 150.0 -1221.1892
3200.0 150.0 -1221.0391
3250.0 150.0 -1220.9407
3300.0 150.0 -1220.851
3350.0 150.0 -1220.7646
3400.0 150.0 -1220.6701
3450.0 150.0 -1220.5542
3500.0 150.0 -1220.4075
3550.0 150.0 -1220.2278
3600.0 150.0 -1220.0197
3650.0 150.0 -1219.7936
3700.0 150.0 -1219.5652
3750.0 150.0 -1219.3583
3800.0 150.0 -1219.22
3850.0 150.0 -1219.1375
3900.0 150.0 -1219.0919
3950.0 150.0 -1219.0776
4000.0 150.0 -1219.0845
4050.0 150.0 -1219.1009
4100.0 150.0 -1219.1187
4150.0 150.0 -1219.1358
4200.0 150.0 -1219.1559
4250.0 150.0 -1219.1876
4300.0 150.0 -1219.2452
4350.0 150.0 -1219.3458
4400.0 150.0 -1219.5175
4450.0 150.0 -1219.7462
4500.0 150.0 -1220.0271
4550.0 150.0 -1220.355
4600.0 150.0 -1220.7227
4650.0 150.0 -1221.1194
4700.0 150.0 -1221.532
4750.0 150.0 -1221.9466
4800.0 150.0 -1222.3535
4850.0 150.0 -1222.7503
4900.0 150.0 -1223.1449
4950.0 150.0 -1223.5543
5000.0 150.0 -1224.0136
0.0 200.0 -1228.1942
50.0 200.0 -1228.2425
100.0 200.0 -1228.3057
150.0 200.0 -1228.3641
200.0 200.0 -1228.402
250.0 200.0 -1228.4222
300.0 200.0 -1228.4337
350.0 200.0 -1228.4503
400.0 200.0 -1228.4902
450.0 200.0 -1228.5733
500.0 200.0 -1228.7184
550.0 200.0 -1228.9416
600.0 200.0 -1229.2513
650.0 200.0 -1229.6423
700.0 200.0 -1230.1056
750.0 200.0 -1230.608
800.0 200.0 -1231.1193
850.0 200.0 -1231.616
900.0 200.0 -1232.0799
950.0 200.0 -1232.496
1000.0 200.0 -1232.852
1050.0 200.0 -1233.1382
1100.0 200.0 -1233.3481
1150.0 200.0 -1233.4809
1200.0 200.0 -1233.547
1250.0 200.0 -1233.584
1300.0 200.0 -1233.6407
1350.0 200.0 -1233.6158
[...]
CELL_DATA 10000
SCALARS Z double 1
LOOKUP_TABLE default
-1189.086633333333
-1192.7175666666667
-1189.4190333333333
-1193.015
-1189.6957333333332
-1193.2507666666668
-1189.8874333333333
-1193.4035000000001
-1189.9782666666667
-1193.4640666666667
-1189.9730666666667
-1193.4449666666667
-1189.8989333333332
-1193.3763
-1189.7935666666665
-1193.2932666666666
-1189.6966333333332
-1193.2328333333332
-1189.6490333333334
-1193.233
-1189.691
-1193.3289666666667
-1189.8547
-1193.5453333333335
-1190.1574333333335
-1193.8932666666667
-1190.599
-1194.3681666666666
-1191.1579
-1194.9386333333332
-1191.7857666666666
-1195.5545333333332
-1192.4294
-1196.1693000000002
-1193.0472666666665
-1196.7502333333332
-1193.6107333333332
-1197.2725666666665
-1194.0979333333335
-1197.7166
-1194.4924666666666
-1198.0684333333334
-1194.7872666666665
-1198.3242
-1194.9881333333333
-1198.4912000000002
-1195.1125
-1198.5874999999999
-1195.1862333333331
-1198.6421
-1195.2351
-1198.6859333333334
-1195.2602
-1198.6871333333331
-1195.1933666666666
-1198.5755666666666
-1194.9779333333333
-1198.3025
-1194.5771
-1197.844
-1193.9833333333333
-1197.2045
-1193.2148666666667
-1196.4079
-1192.3043666666665
-1195.4881666666668
-1191.294
-1194.4895
-1190.2381
-1193.4678666666666
-1189.2020333333332
-1192.4865
-1188.2512333333334
-1191.6031666666668
-1187.4373333333333
-1190.8606
-1186.7895
-1190.2787
-1186.309
-1189.8488666666667
-1185.9699666666666
-1189.5419
-1185.7367
-1189.3261
-1185.5789
-1189.1782999999998
-1185.4779333333333
-1189.0846999999999
-1185.4234666666666
-1189.0375
-1185.4114
-1189.0348999999999
-1185.4448
-1189.0822666666666
-1185.5344
-1189.1915666666666
-1185.6971
-1189.3802333333333
-1185.9546
-1189.6696333333332
-1186.3300666666667
-1190.080866666667
-1186.8399
-1190.6246333333336
-1187.4829
-1191.2924333333333
-1188.2384666666667
-1192.0589
-1189.0741999999998
-1192.8902333333333
-1189.9529333333332
-1193.7489333333333
-1190.8339666666668
-1194.5948333333333
-1191.6736666666666
-1195.3849333333335
-1192.4250333333332
-1196.0729666666666
-1193.0380666666667
-1196.6109666666666
-1193.4654666666668
-1196.9585666666667
-1193.6793
-1197.1008000000002
-1193.6874
-1197.058
-1193.5357999999999
-1196.8861333333334
-1193.3001666666667
-1196.6695666666667
-1193.0645666666667
-1196.4700333333333
-1192.8670333333332
-1196.3063333333332
-1192.7141
-1196.1725666666669
-1192.5842333333333
-1196.0440666666666
-1192.4424666666666
-1195.8909999999998
-1192.2588666666666
-1195.6927666666668
-1192.0214333333333
-1195.4466666666667
-1191.7388333333333
-1195.1657666666667
-1191.4337333333335
-1194.8732333333335
-1191.1362666666666
-1194.5989666666667
-1190.8787666666667
-1194.3751
-1190.6853333333333
-1194.2138
-1190.5539333333334
-1194.1079666666667
-1190.4761333333333
-1194.0493
-1190.4408999999998
-1194.0257666666666
-1190.4310666666668
-1194.0201666666667
-1190.4269000000002
-1194.0156
-1190.4136666666666
-1194.0019666666667
-1190.3869000000002
-1193.9789333333335
-1190.3529666666666
-1193.9556
-1190.3278666666668
-1193.9491333333333
-1190.3335
-1193.9809666666665
-1190.3917333333331
-1194.0721333333333
-1190.5170333333335
-1194.2279333333333
-1190.7041
-1194.4400666666668
-1190.9422333333332
-1194.6977666666664
-1191.2187666666666
-1194.9903333333332
-1191.5219
-1195.3066333333334
-1191.8398666666667
-1195.6351
-1192.1601666666666
-1195.9627666666665
-1192.4696333333334
-1196.2769333333333
-1192.7580333333333
-1196.5695
-1193.0226333333333
-1196.8403666666666
-1193.2691666666667
-1197.0969666666667
-1193.5077999999999
-1197.3481666666664
-1199.6678333333332
-1203.2880333333333
-1199.9337333333333
-1203.5262
-1200.1625000000001
-1203.7274
-1200.3317333333334
-1203.8660666666667
-1200.4236333333336
-1203.9325
-1200.4448333333332
-1203.9412666666667
-1200.4187666666667
-1203.9171
-1200.3743333333332
-1203.8878666666667
-1200.3429999999998
-1203.8836
-1200.3574
-1203.9347333333333
-1200.4483
-1204.0678333333333
-1200.6391333333333
-1204.3013
-1200.9433333333334
-1204.6441
-1201.3632
-1205.0991999999999
-1201.8849
-1205.6348
-1202.4573
-1206.2016
-1203.0387333333333
-1206.7645
-1203.5980333333334
-1207.2969
-1204.1109333333332
-1207.7775
-1204.5578
-1208.1885333333332
-1204.9233000000002
-1208.5167333333331
-1205.1988
-1208.7552333333333
-1205.3837
-1208.9040000000002
-1205.4865
-1208.9732999999999
-1205.5301666666667
-1208.9935000000003
-1205.5562666666667
-1209.0400333333334
-1205.5966333333333
-1209.0640999999998
-1205.5367999999999
-1208.9649666666667
-1205.3283
-1208.7037333333333
-1204.9448333333332
-1208.2671333333335
-1204.3874666666668
-1207.6654333333333
-1203.6755
-1206.9217999999998
-1202.838
-1206.0675333333331
-1201.9132
-1205.1436
-1200.9496666666666
-1204.2
-1200.0026666666665
-1203.2904
-1199.1261666666667
-1202.4643333333333
-1198.3645999999999
-1201.7602
-1197.7454
-1201.1997666666666
-1197.2729333333334
-1200.7745000000002
-1196.9223666666664
-1200.456233333333
-1196.6651666666664
-1200.2198666666666
-1196.4802
-1200.0492000000002
-1196.3540666666665
-1199.9337666666665
-1196.2784333333332
-1199.8672333333334
-1196.2498
-1199.8482666666666
-1196.2708333333333
-1199.8814666666667
-1196.3500666666666
-1199.9768333333334
-1196.5014666666666
-1200.1496
-1196.7434
-1200.4184333333333
-1197.0954666666667
-1200.8015666666668
-1197.5717000000002
-1201.3105666666668
-1198.1730333333335
-1201.9407
-1198.8805333333332
-1202.6657999999998
-1199.6602
-1203.4492666666667
-1200.4753
-1204.2544666666665
-1201.2889666666667
-1205.0449333333333
-1202.0620666666666
-1205.7813333333331
-1202.7521333333334
-1206.4208
-1203.3145333333334
-1206.9199666666666
-1203.7095000000002
-1207.2449000000001
-1203.9154666666666
-1207.3837666666668
-1203.9397
-1207.3541666666667
-1203.8228
-1207.2084333333332
-1203.6411666666665
-1207.0476666666666
-1203.4815333333333
-1206.9125999999999
-1203.3404
-1206.7925333333333
-1203.2169333333334
-1206.6811666666667
-1203.0966333333333
-1206.5614
-1202.9573666666668
-1206.4143666666666
-1202.7819
-1206.229
-1202.5651
-1206.0057333333334
-1202.3142333333333
-1205.7545333333335
-1202.0455666666667
-1205.4929
-1201.7832666666666
-1205.2465333333332
-1201.5585666666666
-1205.0540333333336
-1201.3990333333334
-1204.9234666666666
-1201.2922666666666
-1204.8400000000001
-1201.2288666666666
-1204.7953
-1201.2006000000001
-1204.7800333333334
-1201.1943
-1204.7806666666668
-1201.1952333333331
-1204.7844666666667
-1201.1931333333334
-1204.7845
-1201.1853666666666
-1204.7812999999999
-1201.1775
-1204.7826333333333
-1201.1819999999998
-1204.8020333333334
-1201.2166333333332
-1204.8588333333335
-1201.3035666666667
-1204.9781
-1201.4575666666667
-1205.1602
-1201.6665333333333
-1205.3942666666665
-1201.9233333333332
-1205.6733333333332
-1202.2193333333332
-1205.9893
-1202.5450333333333
-1206.3326333333332
-1202.8894666666667
-1206.6916666666666
-1203.2399
-1207.0530333333334
-1203.5832
-1207.4039666666667
-1203.9091666666666
-1207.7363666666668
-1204.2144333333333
-1208.0493999999999
-1204.5031333333334
-1208.3504
-1204.7846
-1208.6562333333334
-1210.3001666666669
-1213.9155333333335
-1210.4958666666669
-1214.0920999999998
-1210.6873333333333
-1214.2573999999997
-1210.8318
-1214.3705333333335
-1210.9136666666666
-1214.4288666666666
-1210.9441333333334
-1214.4480999999998
-1210.9435666666666
-1214.4482666666665
-1210.9353333333336
-1214.4523
-1210.9454333333333
-1214.4851666666666
-1211.0006666666666
-1214.5719000000001
-1211.1255
-1214.7338333333335
-1211.3383333333334
-1214.9859
-1211.6496333333334
-1215.3342333333333
-1212.0647
-1215.7832666666666
-1212.5676666666668
-1216.2966333333334
-1213.1080666666667
-1216.8329333333334
-1213.6522333333332
-1217.3630333333333
-1214.1741666666665
-1217.8638666666668
-1214.6531666666667
-1218.3167666666666
-1215.0718333333332
-1218.7058666666665
-1215.416
-1219.0188
-1215.6759666666667
-1219.2472
-1215.8467666666666
-1219.3873333333333
-1215.9313666666667
-1219.4455666666665
-1215.9508333333333
-1219.4538666666667
-1215.9803
-1219.5202666666667
-1216.0474666666667
-1219.5552
-1216.0
-1219.4600333333335
-1215.800433333333
-1219.2047666666667
-1215.4303666666667
-1218.7817000000002
-1214.8964333333333
-1218.2029666666667
-1214.2182666666665
-1217.4904333333334
-1213.4234999999999
-1216.6747333333333
-1212.5491666666667
-1215.7956333333334
-1211.6404
-1214.8995333333335
-1210.7468666666666
-1214.0350333333333
-1209.9167333333332
-1213.2464
-1209.1896
-1212.5668
-1208.5917666666667
-1212.0238333333334
-1208.1334
-1211.6076333333333
-1207.7825999999998
-1211.2854
-1207.5137333333334
-1211.0364666666667
-1207.3116
-1210.8490666666667
-1207.1663666666666
-1210.7152666666668
-1207.0714666666665
-1210.6301
-1207.0243333333335
-1210.5930333333336
-1207.0276000000001
-1210.6084333333333
-1207.0890666666667
-1210.6859666666667
-1207.2218666666668
-1210.8400666666666
-1207.4428333333333
-1211.0870333333332
-1207.7687333333333
-1211.4399999999998
-1208.2117
-1211.9172
-1208.7837333333334
-1212.5254333333332
-1209.4676666666664
-1213.2311666666665
-1210.2183666666667
-1213.9894333333334
-1210.9995
-1214.7661333333333
-1211.7770666666665
-1215.5270333333335
-1212.5141666666666
-1216.2339333333332
-1213.1697666666666
-1216.8451666666667
-1213.7016333333333
-1217.3201666666666
-1214.0739
-1217.6288666666667
-1214.2681666666667
-1217.7620666666667
-1214.2921333333334
-1217.7384333333332
-1214.1861
-1217.6090333333332
-1214.0378666666666
-1217.4851666666666
-1213.9260333333334
-1217.3844666666666
-1213.8231666666668
-1217.2908
-1213.7244
-1217.1955
-1213.6170333333332
-1217.0845
-1213.4858666666667
-1216.9453
-1213.3209
-1216.7721
-1213.1208333333334
-1216.5670666666667
-1212.8922666666667
-1216.3389
-1212.6485
-1216.1024333333332
-1212.4101
-1215.8800333333331
-1212.2119333333333
-1215.7130666666667
-1212.0796
-1215.6051333333335
-1211.9967333333334
-1215.5414
-1211.9511
-1215.5120333333334
-1211.9356666666665
-1215.5083000000002
-1211.9390333333333
-1215.5184
-1211.9492666666665
-1215.5322333333334
-1211.9587999999999
-1215.5450333333333
-1211.9666666666665
-1215.5584333333334
-1211.9781999999998
-1215.5795333333333
-1212.004
-1215.6207000000002
-1212.0609333333334
-1215.6997666666668
-1212.1722
-1215.8419333333334
-1212.3504666666665
-1216.0450333333333
-1212.5825
-1216.3010666666667
-1212.8628333333334
-1216.6045333333332
-1213.1850000000002
-1216.9487333333334
-1213.5406333333333
-1217.3242666666665
-1213.9184666666667
-1217.7188999999998
-1214.3052333333333
-1218.119
-1214.6875666666665
-1218.5126
-1215.0562
-1218.8937333333333
-1215.4088666666667
-1219.2647
-1215.7524999999998
-1219.6376333333335
-1216.1071666666667
-1220.0404666666666
-1221.0187333333333
-1224.645166666667
-1221.1382
-1224.7405
-1221.2644666666665
-1224.8280666666667
-1221.3597333333335
-1224.8889333333334
-1221.4149333333335
-1224.9221
-1221.44
-1224.9372
-1221.45
-1224.9482
-1221.4634333333333
-1224.9732999999999
-1221.5019
-1225.0332
-1221.5877
-1225.1484666666665
-1221.741
-1225.3369666666665
-1221.9773666666667
-1225.6108333333334
-1222.3039666666666
-1225.9715333333334
-1222.7203666666667
-1226.4152333333334
-1223.2070999999999
-1226.9105
-1223.7249
-1227.4253666666666
-1224.2441999999999
-1227.9332666666667
-1224.7418
-1228.4135999999999
-1225.1992666666667
-1228.8496333333333
-1225.6011666666666
-1229.2275
-1225.935
-1229.5362333333335
-1226.1912666666667
-1229.7677999999999
-1226.3643
-1229.9189
-1226.4561333333334
-1229.9959000000001
-1226.4883666666667
-1230.0297666666668
-1226.5352333333333
-1230.0960333333333
-1226.5888
-1230.1062666666667
-1226.5327
-1229.9976666666669
-1226.3293333333334
-1229.7373333333333
-1225.9641
-1229.3191666666664
-1225.4433000000001
-1228.7527
-1224.7845333333335
-1228.0581666666667
-1224.0153
-1227.2667333333331
-1223.1726333333334
-1226.4178666666667
-1222.3
-1225.556
-1221.4437
-1224.7266
-1220.6476
-1223.9695333333332
-1219.9455333333335
-1223.3126333333332
-1219.3659666666665
-1222.7834333333333
-1218.9155333333333
-1222.3655666666666
-1218.5604666666666
-1222.0327333333332
-1218.2803999999999
-1221.7696999999998
-1218.0632333333333
-1221.5662
-1217.9009333333333
-1221.4153
-1217.7882666666667
-1221.3131
-1217.7236333333333
-1221.2596333333333
-1217.7098666666668
-1221.2596666666666
-1217.7551333333333
-1221.3234666666667
-1217.8725000000002
-1221.4650333333332
-1218.0768
-1221.6976333333332
-1218.3791333333334
-1222.0301
-1218.7964666666667
-1222.4852333333336
-1219.3476666666666
-1223.0744333333332
-1220.0157
-1223.7610666666667
-1220.7476
-1224.5
-1221.508466666667
-1225.2578999999998
-1222.2655333333332
-1226.0005333333331
-1222.9818
-1226.6888666666666
-1223.6163999999999
-1227.2818666666665
-1224.1291666666666
-1227.7417999999998
-1224.4877666666666
-1228.0426
-1224.6776
-1228.1788333333334
-1224.7096
-1228.1725666666669
-1224.6243333333334
-1228.0730999999998
-1224.5051
-1227.9699
-1224.4084
-1227.8760333333335
-1224.3197333333333
-1227.7884
-1224.2305666666668
-1227.6962
-1224.1286
-1227.5874333333334
-1224.0027666666667
-1227.4533333333331
-1223.8470666666665
-1227.2907666666667
-1223.6620333333333
-1227.1027333333332
-1223.4543999999999
-1226.8978
-1223.2362333333333
-1226.6890999999998
-1223.0252333333335
-1226.4959
-1222.8518333333334
-1226.3498333333334
-1222.7366
-1226.2553333333333
-1222.6685333333332
-1226.2026
-1222.6364
-1226.1837
-1222.6319666666666
-1226.1887666666667
-1222.6444666666666
-1226.2069666666666
-1222.6638666666665
-1226.2301
-1222.6847
-1226.2550666666666
-1222.7071666666668
-1226.2840999999999
-1222.7367000000002
-1226.3243
-1222.7838333333332
-1226.3871333333334
-1222.8628333333334
-1226.4875333333332
-1222.9942
-1226.6461333333334
-1223.1884333333333
-1226.8640333333335
-1223.4392
-1227.1385
-1223.7420666666667
-1227.4652
-1224.0914
-1227.8376333333333
-1224.4786
-1228.2458
-1224.8918999999999
-1228.6772333333336
-1225.318
-1229.1193666666668
-1225.7454
-1229.5636000000002
-1226.1683333333333
-1230.0091666666667
-1226.5904
-1230.4667
-1227.0261333333335
-1230.9557000000002
-1227.5005
-1231.5014333333336
-1231.8444
-1235.4456
-1231.8486666666668
-1235.4118666666666
-1231.8673
-1235.3958
-1231.8857666666665
-1235.3862
-1231.8965333333333
-1235.3793666666668
-1231.9021333333333
-1235.3774
-1231.9106666666667
-1235.3884
-1231.9358
-1235.4261
-1231.9949
-1235.5069333333333
-1232.106
-1235.6470333333334
-1232.2854666666667
-1235.8603333333333
-1232.5453
-1236.1543
-1232.8874
-1236.5255333333332
-1233.3045333333332
-1236.9640666666667
-1233.7781666666667
-1237.4459
-1234.2787
-1237.9441333333334
-1234.7798666666667
-1238.4356
-1235.2608
-1238.9018666666664
-1235.7050333333334
-1239.3281666666667
-1236.0991000000001
-1239.7024000000001
-1236.4320333333335
-1240.0149333333336
-1236.6956666666667
-1240.2590333333335
-1236.8857666666665
-1240.4325000000001
-1237.0054
-1240.5411333333334
-1237.0730333333333
-1240.6059333333333
-1237.1234666666667
-1240.6524666666667
-1237.1425000000002
-1240.6335666666666
-1237.0622999999998
-1240.5018
-1236.8451666666667
-1240.2300333333333
-1236.4772666666665
-1239.8102333333334
-1235.9615333333334
-1239.2488666666668
-1235.3136666666667
-1238.5659666666668
-1234.5619
-1237.7936333333332
-1233.7437
-1236.9710333333333
-1232.9012
-1236.1404666666667
-1232.0781666666667
-1235.3443
-1231.3146666666667
-1234.6179666666667
-1230.6399333333334
-1233.9841000000001
-1230.0742666666665
-1233.4592666666667
-1229.6184666666666
-1233.0314
-1229.2507666666668
-1232.6845999999998
-1228.9558666666665
-1232.4059333333332
-1228.7227333333333
-1232.1861999999999
-1228.5440333333333
-1232.0193333333334
-1228.4154333333333
-1231.9022666666667
-1228.3359333333335
-1231.8355666666666
-1228.3090666666667
-1231.8248666666666
-1228.3438
-1231.8808999999999
-1228.4531
-1232.0169333333333
-1228.6497
-1232.2438333333332
-1228.9427333333333
-1232.5706333333333
-1229.3467666666666
-1233.0131666666666
-1229.8784
-1233.5798333333335
-1230.5212333333332
-1234.2382666666665
-1231.2305
-1234.9534999999998
-1231.9724333333331
-1235.6924000000001
-1232.7128666666667
-1236.4181666666666
-1233.4129
-1237.0900333333334
-1234.0314666666666
-1237.6678
-1234.5308333333332
-1238.1171333333334
-1234.8829333333333
-1238.4163999999998
-1235.0773
-1238.5636000000002
-1235.1281
-1238.5816000000002
-1235.0748333333333
-1238.5143333333333
-1234.9774
-1238.4212666666665
-1234.8814
-1238.3279333333332
-1234.7912333333334
-1238.2364666666667
-1234.6992666666667
-1238.1395333333332
-1234.5953
-1238.0285333333331
-1234.4712333333334
-1237.8974333333333
-1234.3232333333333
-1237.7445333333333
-1234.1527666666666
-1237.5733
-1233.9666666666665
-1237.3916666666667
-1233.7756666666667
-1237.2107666666666
-1233.5948666666666
-1237.0464000000002
-1233.4454333333335
-1236.9185
-1233.3416333333334
-1236.8334666666667
-1233.2812333333334
-1236.7879666666668
-1233.2566333333334
-1236.7748666666666
-1233.2587333333333
-1236.7849666666666
-1233.2775
-1236.8088666666665
-1233.3045666666667
-1236.8400333333336
-1233.3359333333333
-1236.8762333333332
-1233.3723
-1236.9197333333334
-1233.4191333333335
-1236.9771666666666
-1233.4856333333332
-1237.0582
-1233.5844
-1237.1765000000003
-1233.7315666666666
-1237.3475666666666
-1233.9377333333334
-1237.5778666666668
-1234.2034666666668
-1237.8680666666667
-1234.5262333333333
-1238.2156
-1234.9008
-1238.6138666666668
-1235.3179
-1239.0524666666668
-1235.7657
-1239.5197333333333
-1236.2326333333333
-1240.0062666666665
-1236.7112
-1240.5087333333333
-1237.2019666666667
-1241.0342
-1237.7177000000001
-1241.6018666666666
-1238.2804333333333
-1242.2367333333334
-1238.9129333333333
-1242.9615999999999
-1242.6954666666668
-1246.2334
-1242.5467333333333
-1246.0478333333333
-1242.4414666666667
-1245.9149333333332
-1242.3697
-1245.8231333333333
-1242.3224666666667
-1245.7636666666667
-1242.2958333333333
-1245.7330666666667
-1242.2923666666666
-1245.7349000000002
-1242.3212333333333
-1245.7785000000001
-1242.3954
-1245.8756
-1242.5281666666667
-1246.0372333333332
-1242.7309666666667
-1246.2718666666667
-1243.0102333333334
-1246.5814333333335
-1243.3636333333334
-1246.9596
-1243.7810333333334
-1247.3937999999998
-1244.2445666666665
-1247.8637666666666
-1244.7305333333334
-1248.3473000000001
-1245.2166333333332
-1248.8246333333334
-1245.6846666666668
-1249.2797
-1246.1200333333334
-1249.6994666666667
-1246.5109
-1250.0732666666665
-1246.8476666666668
-1250.3924
-1247.1230333333333
-1250.6505333333334
-1247.3332666666665
-1250.8451
-1247.4800666666667
-1250.9786666666666
-1247.5726333333332
-1251.0599666666667
-1247.6222666666665
-1251.0927666666666
-1247.6140333333333
-1251.0490333333335
-1247.5080666666665
-1250.8959666666667
-1247.2745666666667
-1250.6112666666666
-1246.8997
-1250.1866
-1246.3844666666666
-1249.6280333333332
-1245.7447333333332
-1248.9568
-1245.0097666666668
-1248.2054
-1244.2166
-1247.4114
-1243.4051
-1246.6140666666668
-1242.6155666666666
-1245.8514
-1241.8834333333334
-1245.1537
-1241.2324
-1244.5386
-1240.6753
-1244.015666666667
-1240.2125666666668
-1243.5794333333333
-1239.8320999999999
-1243.2194333333334
-1239.522
-1242.9257
-1239.2731
-1242.6907333333331
-1239.0791333333334
-1242.5095333333331
-1238.936566666667
-1242.3798
-1238.8451333333335
-1242.3029333333334
-1238.8091666666667
-1242.2849999999999
-1238.8378
-1242.3364666666666
-1238.9433999999999
-1242.4696
-1239.1372666666666
-1242.6942999999999
-1239.4287666666667
-1243.0189
-1239.8271666666667
-1243.4506333333331
-1240.3380666666665
-1243.9904666666669
-1240.9492666666667
-1244.6187333333335
-1241.6307333333334
-1245.3075
-1242.3502333333333
-1246.0238000000002
-1243.0712666666668
-1246.7287999999999
-1243.7528333333332
-1247.3809666666666
-1244.3545000000001
-1247.942
-1244.8416
-1248.3811666666668
-1245.1901666666668
-1248.6805
-1245.3930333333335
-1248.8401999999999
-1245.4642666666666
-1248.8808999999999
-1245.4377333333332
-1248.8395
-1245.3599666666667
-1248.7603000000001
-1245.2681333333333
-1248.6691
-1245.1741333333332
-1248.5735666666667
-1245.0761666666667
-1248.4716
-1244.9682
-1248.358433333333