# vtk DataFile Version 3.0
file is written by Andrei
ASCII
DATASET POLYDATA
POINTS 9242 double
700.0 200.0 -1150.1056
750.0 200.0 -1150.608
800.0 200.0 -1151.1193
850.0 200.0 -1151.616
900.0 200.0 -1152.0798
950.0 200.0 -1152.496
1000.0 200.0 -1152.852
1050.0 200.0 -1153.1382
1100.0 200.0 -1153.3481
1150.0 200.0 -1153.4809
1200.0 200.0 -1153.547
1250.0 200.0 -1153.584
1300.0 200.0 -1153.6407
1350.0 200.0 -1153.6158
1400.0 200.0 -1153.4572
1450.0 200.0 -1153.144
1500.0 200.0 -1152.676
1550.0 200.0 -1152.0657
1600.0 200.0 -1151.3373
1650.0 200.0 -1150.5258
2900.0 200.0 -1150.3905
2950.0 200.0 -1150.9421
3000.0 200.0 -1151.3508
3050.0 200.0 -1151.5969
3100.0 200.0 -1151.6838
3150.0 200.0 -1151.6447
3200.0 200.0 -1151.5355
3250.0 200.0 -1151.4335
3300.0 200.0 -1151.3436
3350.0 200.0 -1151.257
3400.0 200.0 -1151.1615
3450.0 200.0 -1151.0466
3500.0 200.0 -1150.9058
3550.0 200.0 -1150.7386
3600.0 200.0 -1150.5499
3650.0 200.0 -1150.3499
3700.0 200.0 -1150.1522
4350.0 200.0 -1150.1193
4400.0 200.0 -1150.3016
4450.0 200.0 -1150.5443
4500.0 200.0 -1150.8441
4550.0 200.0 -1151.1965
4600.0 200.0 -1151.5937
4650.0 200.0 -1152.0243
4700.0 200.0 -1152.4754
4750.0 200.0 -1152.936
4800.0 200.0 -1153.4012
4850.0 200.0 -1153.876
4900.0 200.0 -1154.3792
4950.0 200.0 -1154.9336
5000.0 200.0 -1155.5571
0.0 250.0 -1159.0965
50.0 250.0 -1158.9978
100.0 250.0 -1158.9321
150.0 250.0 -1158.8912
200.0 250.0 -1158.8654
250.0 250.0 -1158.8505
300.0 250.0 -1158.848
350.0 250.0 -1158.8669
400.0 250.0 -1158.9212
450.0 250.0 -1159.0263
500.0 250.0 -1159.1964
550.0 250.0 -1159.443
600.0 250.0 -1159.7686
650.0 250.0 -1160.1657
700.0 250.0 -1160.6209
750.0 250.0 -1161.1088
800.0 250.0 -1161.6043
850.0 250.0 -1162.0865
900.0 250.0 -1162.5392
950.0 250.0 -1162.9493
1000.0 250.0 -1163.3059
1050.0 250.0 -1163.6007
1100.0 250.0 -1163.8283
1150.0 250.0 -1163.9883
1200.0 250.0 -1164.0881
1250.0 250.0 -1164.1457
1300.0 250.0 -1164.171
1350.0 250.0 -1164.1139
1400.0 250.0 -1163.9343
1450.0 250.0 -1163.6118
1500.0 250.0 -1163.1429
1550.0 250.0 -1162.538
1600.0 250.0 -1161.8226
1650.0 250.0 -1161.0325
1700.0 250.0 -1160.2078
1750.0 250.0 -1159.3906
1800.0 250.0 -1158.6214
1850.0 250.0 -1157.9308
1900.0 250.0 -1157.3342
1950.0 250.0 -1156.8423
2000.0 250.0 -1156.4401
2050.0 250.0 -1156.1133
2100.0 250.0 -1155.8506
2150.0 250.0 -1155.6443
2200.0 250.0 -1155.4896
2250.0 250.0 -1155.3846
2300.0 250.0 -1155.3315
2350.0 250.0 -1155.338
2400.0 250.0 -1155.4164
2450.0 250.0 -1155.5798
2500.0 250.0 -1155.837
2550.0 250.0 -1156.1984
2600.0 250.0 -1156.6757
2650.0 250.0 -1157.2697
2700.0 250.0 -1157.9452
2750.0 250.0 -1158.6689
2800.0 250.0 -1159.4063
2850.0 250.0 -1160.1179
2900.0 250.0 -1160.7617
2950.0 250.0 -1161.2995
3000.0 250.0 -1161.7011
3050.0 250.0 -1161.9512
3100.0 250.0 -1162.0558
3150.0 250.0 -1162.0443
3200.0 250.0 -1161.9632
3250.0 250.0 -1161.8671
3300.0 250.0 -1161.7731
3350.0 250.0 -1161.6793
3400.0 250.0 -1161.5778
3450.0 250.0 -1161.4612
3500.0 250.0 -1161.3252
3550.0 250.0 -1161.1698
3600.0 250.0 -1161.0002
3650.0 250.0 -1160.8249
3700.0 250.0 -1160.6552
3750.0 250.0 -1160.5068
3800.0 250.0 -1160.3964
3850.0 250.0 -1160.3278
3900.0 250.0 -1160.2964
3950.0 250.0 -1160.2944
4000.0 250.0 -1160.3125
4050.0 250.0 -1160.3421
4100.0 250.0 -1160.3784
4150.0 250.0 -1160.4205
4200.0 250.0 -1160.4721
4250.0 250.0 -1160.5407
4300.0 250.0 -1160.6364
4350.0 250.0 -1160.7738
4400.0 250.0 -1160.9673
4450.0 250.0 -1161.222
4500.0 250.0 -1161.5381
4550.0 250.0 -1161.9122
4600.0 250.0 -1162.3357
4650.0 250.0 -1162.7974
4700.0 250.0 -1163.2864
4750.0 250.0 -1163.7963
4800.0 250.0 -1164.3287
4850.0 250.0 -1164.8979
4900.0 250.0 -1165.5284
4950.0 250.0 -1166.2481
5000.0 250.0 -1167.0796
0.0 300.0 -1169.9921
50.0 300.0 -1169.7103
100.0 300.0 -1169.5011
150.0 300.0 -1169.3525
200.0 300.0 -1169.2515
250.0 300.0 -1169.189
300.0 300.0 -1169.1622
350.0 300.0 -1169.1756
400.0 300.0 -1169.2387
450.0 300.0 -1169.3618
500.0 300.0 -1169.5535
550.0 300.0 -1169.8191
600.0 300.0 -1170.1566
650.0 300.0 -1170.5565
700.0 300.0 -1171.004
750.0 300.0 -1171.4785
800.0 300.0 -1171.9591
850.0 300.0 -1172.4283
900.0 300.0 -1172.8716
950.0 300.0 -1173.2775
1000.0 300.0 -1173.6364
1050.0 300.0 -1173.9401
1100.0 300.0 -1174.1832
1150.0 300.0 -1174.3638
1200.0 300.0 -1174.4841
1250.0 300.0 -1174.5501
1300.0 300.0 -1174.5572
1350.0 300.0 -1174.476
1400.0 300.0 -1174.2776
1450.0 300.0 -1173.9444
1500.0 300.0 -1173.4725
1550.0 300.0 -1172.8736
1600.0 300.0 -1172.1743
1650.0 300.0 -1171.4095
1700.0 300.0 -1170.6169
1750.0 300.0 -1169.8347
1800.0 300.0 -1169.0981
1850.0 300.0 -1168.4322
1900.0 300.0 -1167.8494
1950.0 300.0 -1167.3553
2000.0 300.0 -1166.9429
2050.0 300.0 -1166.6021
2100.0 300.0 -1166.3244
2150.0 300.0 -1166.1035
2200.0 300.0 -1165.9355
2250.0 300.0 -1165.8193
2300.0 300.0 -1165.758
2350.0 300.0 -1165.759
2400.0 300.0 -1165.834
2450.0 300.0 -1165.9951
2500.0 300.0 -1166.2509
2550.0 300.0 -1166.6074
2600.0 300.0 -1167.0688
2650.0 300.0 -1167.6329
2700.0 300.0 -1168.2781
2750.0 300.0 -1168.9755
2800.0 300.0 -1169.6896
2850.0 300.0 -1170.3789
2900.0 300.0 -1171.0023
2950.0 300.0 -1171.5242
3000.0 300.0 -1171.9182
3050.0 300.0 -1172.1721
3100.0 300.0 -1172.2927
3150.0 300.0 -1172.3057
3200.0 300.0 -1172.2496
3250.0 300.0 -1172.1642
3300.0 300.0 -1172.07
3350.0 300.0 -1171.9714
3400.0 300.0 -1171.8656
3450.0 300.0 -1171.7485
3500.0 300.0 -1171.6178
3550.0 300.0 -1171.4744
3600.0 300.0 -1171.3226
3650.0 300.0 -1171.1694
3700.0 300.0 -1171.0238
3750.0 300.0 -1170.8975
3800.0 300.0 -1170.8013
3850.0 300.0 -1170.74
3900.0 300.0 -1170.7118
3950.0 300.0 -1170.7115
4000.0 300.0 -1170.7318
4050.0 300.0 -1170.7657
4100.0 300.0 -1170.8093
4150.0 300.0 -1170.8613
4200.0 300.0 -1170.9244
4250.0 300.0 -1171.0052
4300.0 300.0 -1171.1136
4350.0 300.0 -1171.263
4400.0 300.0 -1171.4666
4450.0 300.0 -1171.7322
4500.0 300.0 -1172.0627
4550.0 300.0 -1172.4551
4600.0 300.0 -1172.9011
4650.0 300.0 -1173.3909
4700.0 300.0 -1173.9171
4750.0 300.0 -1174.4785
4800.0 300.0 -1175.084
4850.0 300.0 -1175.7557
4900.0 300.0 -1176.524
4950.0 300.0 -1177.422
5000.0 300.0 -1178.4816
0.0 350.0 -1180.803
50.0 350.0 -1180.3336
100.0 350.0 -1179.9747
150.0 350.0 -1179.7099
200.0 350.0 -1179.5236
250.0 350.0 -1179.4038
300.0 350.0 -1179.3442
350.0 350.0 -1179.3452
400.0 350.0 -1179.4113
450.0 350.0 -1179.547
500.0 350.0 -1179.7551
550.0 350.0 -1180.0347
600.0 350.0 -1180.3796
650.0 350.0 -1180.7784
700.0 350.0 -1181.2167
750.0 350.0 -1181.6771
800.0 350.0 -1182.1426
850.0 350.0 -1182.5983
900.0 350.0 -1183.0319
950.0 350.0 -1183.433
1000.0 350.0 -1183.7923
1050.0 350.0 -1184.1015
1100.0 350.0 -1184.3542
1150.0 350.0 -1184.5464
1200.0 350.0 -1184.6767
1250.0 350.0 -1184.7441
1300.0 350.0 -1184.7391
1350.0 350.0 -1184.6407
1400.0 350.0 -1184.4277
1450.0 350.0 -1184.0866
1500.0 350.0 -1183.6157
1550.0 350.0 -1183.0286
1600.0 350.0 -1182.3518
1650.0 350.0 -1181.6185
1700.0 350.0 -1180.8627
1750.0 350.0 -1180.1181
1800.0 350.0 -1179.4146
1850.0 350.0 -1178.773
1900.0 350.0 -1178.2042
1950.0 350.0 -1177.7121
2000.0 350.0 -1177.2934
2050.0 350.0 -1176.9421
2100.0 350.0 -1176.6521
2150.0 350.0 -1176.4188
2200.0 350.0 -1176.2397
2250.0 350.0 -1176.1143
2300.0 350.0 -1176.046
2350.0 350.0 -1176.0417
2400.0 350.0 -1176.112
2450.0 350.0 -1176.2672
2500.0 350.0 -1176.5154
2550.0 350.0 -1176.8609
2600.0 350.0 -1177.3046
2650.0 350.0 -1177.842
2700.0 350.0 -1178.4569
2750.0 350.0 -1179.1238
2800.0 350.0 -1179.8077
2850.0 350.0 -1180.468
2900.0 350.0 -1181.0657
2950.0 350.0 -1181.5681
3000.0 350.0 -1181.9518
3050.0 350.0 -1182.2071
3100.0 350.0 -1182.341
3150.0 350.0 -1182.3754
3200.0 350.0 -1182.3414
3250.0 350.0 -1182.2703
3300.0 350.0 -1182.1819
3350.0 350.0 -1182.0843
3400.0 350.0 -1181.9788
3450.0 350.0 -1181.8644
3500.0 350.0 -1181.741
3550.0 350.0 -1181.6097
3600.0 350.0 -1181.4744
3650.0 350.0 -1181.3403
3700.0 350.0 -1181.2145
3750.0 350.0 -1181.1056
3800.0 350.0 -1181.0216
3850.0 350.0 -1180.9668
3900.0 350.0 -1180.9415
3950.0 350.0 -1180.9422
4000.0 350.0 -1180.9639
4050.0 350.0 -1181.0012
4100.0 350.0 -1181.0502
4150.0 350.0 -1181.1094
4200.0 350.0 -1181.1808
4250.0 350.0 -1181.2703
4300.0 350.0 -1181.3878
4350.0 350.0 -1181.5463
4400.0 350.0 -1181.7589
4450.0 350.0 -1182.0345
4500.0 350.0 -1182.3771
4550.0 350.0 -1182.7844
4600.0 350.0 -1183.2496
4650.0 350.0 -1183.7654
4700.0 350.0 -1184.3288
4750.0 350.0 -1184.9441
4800.0 350.0 -1185.6273
4850.0 350.0 -1186.407
4900.0 350.0 -1187.3188
4950.0 350.0 -1188.4011
5000.0 350.0 -1189.6933
0.0 400.0 -1191.4965
50.0 400.0 -1190.8368
100.0 400.0 -1190.3213
150.0 400.0 -1189.9321
200.0 400.0 -1189.6523
250.0 400.0 -1189.4679
300.0 400.0 -1189.369
350.0 400.0 -1189.3511
400.0 400.0 -1189.4134
450.0 400.0 -1189.5551
500.0 400.0 -1189.7728
550.0 400.0 -1190.0602
600.0 400.0 -1190.4071
650.0 400.0 -1190.8011
700.0 400.0 -1191.2281
750.0 400.0 -1191.6736
800.0 400.0 -1192.1232
850.0 400.0 -1192.5646
900.0 400.0 -1192.9869
950.0 400.0 -1193.3806
1000.0 400.0 -1193.7365
1050.0 400.0 -1194.0458
1100.0 400.0 -1194.3011
1150.0 400.0 -1194.4969
1200.0 400.0 -1194.6293
1250.0 400.0 -1194.6936
1300.0 400.0 -1194.6789
1350.0 400.0 -1194.5687
1400.0 400.0 -1194.347
1450.0 400.0 -1194.0043
1500.0 400.0 -1193.542
1550.0 400.0 -1192.9745
1600.0 400.0 -1192.3275
1650.0 400.0 -1191.6313
1700.0 400.0 -1190.9163
1750.0 400.0 -1190.2115
1800.0 400.0 -1189.5421
1850.0 400.0 -1188.9258
1900.0 400.0 -1188.3724
1950.0 400.0 -1187.8857
2000.0 400.0 -1187.4651
2050.0 400.0 -1187.1075
2100.0 400.0 -1186.8091
2150.0 400.0 -1186.5669
2200.0 400.0 -1186.3792
2250.0 400.0 -1186.2466
2300.0 400.0 -1186.1723
2350.0 400.0 -1186.1626
2400.0 400.0 -1186.2264
2450.0 400.0 -1186.3729
2500.0 400.0 -1186.609
2550.0 400.0 -1186.9383
2600.0 400.0 -1187.3603
2650.0 400.0 -1187.8691
2700.0 400.0 -1188.4507
2750.0 400.0 -1189.0814
2800.0 400.0 -1189.728
2850.0 400.0 -1190.3527
2900.0 400.0 -1190.9191
2950.0 400.0 -1191.3977
3000.0 400.0 -1191.7679
3050.0 400.0 -1192.022
3100.0 400.0 -1192.1664
3150.0 400.0 -1192.2195
[...]
CELL_DATA 18101
SCALARS Z double 1
LOOKUP_TABLE default
-1156.9640666666667
-1153.7781666666667
-1157.4459
-1154.2787
-1157.9441333333334
-1154.7798666666667
-1158.4356
-1155.2607666666665
-1158.9018333333331
-1155.705
-1159.3281666666667
-1156.0991000000001
-1159.7024000000001
-1156.4320333333335
-1160.0149333333336
-1156.6956666666667
-1160.2590333333335
-1156.8857666666665
-1160.4325000000001
-1157.0054
-1160.5411333333334
-1157.0730333333333
-1160.6059333333333
-1157.1234666666667
-1160.6524666666667
-1157.1425000000002
-1160.6335666666666
-1157.0622999999998
-1160.5018
-1156.8451666666667
-1160.2300333333333
-1156.4772666666665
-1159.8102333333334
-1155.9615333333334
-1159.2488666666668
-1155.3136666666667
-1158.5659666666668
-1154.5619
-1157.7936333333332
-1157.2553666666665
-1157.0900333333332
-1154.0314333333333
-1157.6677666666667
-1154.5308000000002
-1158.1171333333334
-1154.8829333333333
-1158.4163999999998
-1155.0773
-1158.5636000000002
-1155.1281
-1158.5816000000002
-1155.0748333333333
-1158.5143333333333
-1154.9774
-1158.4212666666665
-1154.8814
-1158.3279333333332
-1154.7912333333334
-1158.2364666666667
-1154.6992666666667
-1158.1395333333332
-1154.5953
-1158.0285333333331
-1154.4712
-1157.8974
-1154.3231999999998
-1157.7445333333333
-1154.1527666666666
-1157.5733
-1153.9666666666665
-1157.3916666666667
-1153.7756666666667
-1157.2107666666666
-1157.1047333333333
-1157.1765
-1153.7315666666666
-1157.3475666666666
-1153.9377333333334
-1157.5778666666668
-1154.2034666666668
-1157.8680666666667
-1154.5262333333333
-1158.2156
-1154.9008
-1158.6138666666668
-1155.3179
-1159.0524666666668
-1155.7657
-1159.5197333333333
-1156.2326
-1160.0062333333333
-1156.7111666666667
-1160.5087333333333
-1157.2019666666667
-1161.0342
-1157.7177000000001
-1161.6018333333334
-1158.2803999999999
-1162.2367000000002
-1158.9129333333333
-1162.9615999999999
-1162.6954666666668
-1166.2334
-1162.5467333333333
-1166.0478333333333
-1162.4414666666667
-1165.9149333333332
-1162.3697
-1165.8231333333333
-1162.3224666666667
-1165.7636666666667
-1162.2958333333333
-1165.7330666666667
-1162.2923666666666
-1165.7349000000002
-1162.3212333333333
-1165.7785000000001
-1162.3954
-1165.8756
-1162.5281666666667
-1166.0372333333332
-1162.7309666666667
-1166.2718666666667
-1163.0102333333334
-1166.5814333333335
-1163.3636333333334
-1166.9596
-1163.7810333333334
-1167.3937999999998
-1164.2445666666665
-1167.8637666666666
-1164.7305333333334
-1168.3473000000001
-1165.2166333333332
-1168.8246333333334
-1165.6846666666668
-1169.2797
-1166.1200333333334
-1169.6994666666667
-1166.5109
-1170.0732666666665
-1166.8476666666668
-1170.3924
-1167.1230333333333
-1170.6505333333334
-1167.3332666666665
-1170.8451
-1167.4800666666667
-1170.9786666666666
-1167.5726333333332
-1171.0599666666667
-1167.6222666666665
-1171.0927666666666
-1167.6140333333333
-1171.0490333333335
-1167.5080666666665
-1170.8959666666667
-1167.2745666666667
-1170.6112666666666
-1166.8997
-1170.1866
-1166.3844666666666
-1169.6280333333332
-1165.7447333333332
-1168.9568333333332
-1165.0098
-1168.2054333333333
-1164.2166
-1167.4114
-1163.4051
-1166.6140666666668
-1162.6155666666666
-1165.8514
-1161.8834333333334
-1165.1537
-1161.2324
-1164.5386
-1160.6753
-1164.015666666667
-1160.2125666666668
-1163.5794333333333
-1159.8320999999999
-1163.2194333333334
-1159.522
-1162.9257
-1159.2731
-1162.6907333333331
-1159.0791333333334
-1162.5095333333331
-1158.936566666667
-1162.3798
-1158.8451333333335
-1162.3029333333334
-1158.8091666666667
-1162.2849999999999
-1158.8378
-1162.3364666666666
-1158.9433999999999
-1162.4696333333334
-1159.1373
-1162.6943333333334
-1159.4287666666667
-1163.0189
-1159.8271666666667
-1163.4506333333331
-1160.3380666666665
-1163.9904666666669
-1160.9492666666667
-1164.6187333333335
-1161.6307333333334
-1165.3075
-1162.3502333333333
-1166.0238000000002
-1163.0712666666668
-1166.7287999999999
-1163.7528333333332
-1167.3809666666666
-1164.3545000000001
-1167.942
-1164.8416
-1168.3811666666668
-1165.1901666666668
-1168.6805
-1165.3930333333335
-1168.8401999999999
-1165.4642666666666
-1168.8808999999999
-1165.4377333333332
-1168.8395
-1165.3599666666667
-1168.7603000000001
-1165.2681333333333
-1168.6691
-1165.1741333333332
-1168.5735666666667
-1165.0761666666667
-1168.4716
-1164.9682
-1168.358433333333
-1164.8449666666666
-1168.2305
-1164.7042666666666
-1168.0873333333332
-1164.5481333333332
-1167.9324
-1164.3825666666667
-1167.7723
-1164.2165000000002
-1167.6161333333332
-1164.0619333333334
-1167.4760333333334
-1163.9335666666668
-1167.3650666666667
-1163.8418333333334
-1167.2897
-1163.7880666666667
-1167.2494
-1163.7675333333334
-1167.2392333333335
-1163.7728
-1167.2519333333332
-1163.7954666666667
-1167.2798666666667
-1163.8287333333333
-1167.3178
-1163.8693999999998
-1167.3636999999999
-1163.9179666666666
-1167.4192666666668
-1163.9790666666665
-1167.4901000000002
-1164.0607666666667
-1167.5850666666668
-1164.1746
-1167.7168
-1164.3347
-1167.8989666666666
-1164.5519666666667
-1168.1402666666665
-1164.8307666666667
-1168.4443333333331
-1165.171
-1168.8099999999997
-1165.5676666666666
-1169.2306333333333
-1166.0114
-1169.6964666666668
-1166.4915666666666
-1170.1981333333333
-1166.9999333333333
-1170.7306333333333
-1167.5345
-1171.2970666666668
-1168.1035333333332
-1171.9125333333334
-1168.7273333333333
-1172.6027000000001
-1169.4334999999999
-1173.3980333333332
-1170.2499
-1174.3277333333333
-1173.5018
-1176.9489666666666
-1173.1816666666666
-1176.6031333333333
-1172.9427666666668
-1176.3457
-1172.7713
-1176.1616666666669
-1172.6547
-1176.0388
-1172.585
-1175.9700666666668
-1172.5606666666667
-1175.9550000000002
-1172.5865000000001
-1175.9984000000002
-1172.6706000000001
-1176.1067
-1172.8207666666667
-1176.2852
-1173.0425666666667
-1176.5363
-1173.3368
-1176.8569666666665
-1173.6975666666667
-1177.2381666666668
-1174.1129666666666
-1177.6663666666666
-1174.5664
-1178.1241
-1175.0382333333334
-1178.5929333333333
-1175.51
-1179.0564
-1175.9660666666666
-1179.5006
-1176.3936666666666
-1179.9141333333334
-1176.7823
-1180.2872333333335
-1177.1229333333333
-1180.6112999999998
-1177.4082666666666
-1180.8796333333332
-1177.6337333333333
-1181.0881333333334
-1177.7981
-1181.2357333333332
-1177.9036333333331
-1181.3236333333332
-1177.9504666666664
-1181.3468
-1177.9241
-1181.2852666666665
-1177.7981
-1181.1153333333334
-1177.5499
-1180.8195666666668
-1177.1678333333332
-1180.3916
-1176.6539333333333
-1179.8392999999999
-1176.0255
-1179.1849
-1175.3118666666667
-1178.4599333333333
-1174.5483000000002
-1177.6993666666667
-1173.7714333333333
-1176.9385
-1173.0169666666668
-1176.2102666666667
-1172.3149666666668
-1175.5399333333335
-1171.6848666666667
-1174.9422
-1171.1363000000001
-1174.4238666666668
-1170.6701
-1173.9828
-1170.2794666666666
-1173.6125333333332
-1169.9562
-1173.3062
-1169.6933333333334
-1173.0581333333332
-1169.4859333333332
-1172.8646666666666
-1169.3315
-1172.7244333333335
-1169.2305333333334
-1172.6394333333335
-1169.1876666666667
-1172.6155666666666
-1169.2115666666666
-1172.6625666666666
-1169.3137
-1172.7914333333335
-1169.5044
-1173.0111666666667
-1169.7912333333334
-1173.3279
-1170.1790333333333
-1173.7447666666667
-1170.6687666666667
-1174.2598333333333
-1171.251
-1174.859
-1171.9035
-1175.5187333333333
-1172.5963
-1176.2070333333334
-1173.2920666666666
-1176.8848666666665
-1173.9497333333334
-1177.512
-1174.5307333333333
-1178.0526666666667
-1175.0035
-1178.4793666666667
-1175.3473666666666
-1178.777
-1175.5573000000002
-1178.9469333333334
-1175.6464666666666
-1179.0073666666665
-1175.6435666666666
-1178.9888
-1175.5850666666668
-1178.9252999999999
-1175.5015
-1178.8407333333332
-1175.4077666666667
-1178.7458666666666
-1175.3071
-1178.6429
-1175.1976333333332
-1178.5305666666666
-1175.0769
-1178.4077333333332
-1174.9444
-1178.2750333333333
-1174.8022333333333
-1178.1355666666666
-1174.6554666666668
-1177.9947
-1174.5111666666667
-1177.8595333333333
-1174.3786
-1177.7392
-1174.2681333333333
-1177.6428333333333
-1174.1876333333332
-1177.5761333333332
-1174.1395333333332
-1177.5400333333334
-1174.1216
-1177.5317333333332
-1174.1285
-1177.5459666666668
-1174.1538
-1177.5769333333333
-1174.1920666666665
-1177.6202333333333
-1174.2402666666665
-1177.6736333333333
-1174.2983666666667
-1177.7382
-1174.3701333333333
-1177.8187666666668
-1174.4630333333332
-1177.9238999999998
-1174.5881333333334
-1178.0656999999999
-1174.7586333333331
-1178.2572666666665
-1174.9859
-1178.5085333333334
-1175.2764666666667
-1178.8247666666666
-1175.6316333333334
-1179.2055333333335
-1176.0468666666666
-1179.6450333333335
-1176.513866666667
-1180.1353000000001
-1177.0244666666667
-1180.6704333333334
-1177.5748
-1181.2504666666666
-1178.1688666666666
-1181.8851333333332
-1178.8223333333333
-1182.5966666666666
-1179.5622333333333
-1183.4166
-1180.4216
-1184.3806333333334
-1181.4349
-1185.5253333333333
-1184.2110333333333
-1187.5556333333334
-1183.7150333333332
-1187.0442666666668
-1183.3353
-1186.6544333333334
-1183.0552
-1186.3693333333333
-1182.8599000000002
-1186.1746666666668
-1182.7386333333334
-1186.0603666666668
-1182.6861333333334
-1186.0217666666667
-1182.7025333333333
-1186.0586
-1182.7905666666668
-1186.1718333333333
-1182.9524000000001
-1186.361
-1183.1875333333335
-1186.6225666666667
-1183.4915
-1186.9489666666666
-1183.8550333333333
-1187.3288666666667
-1184.2654
-1187.7486333333334
-1184.7073
-1188.1929333333335
-1185.1644333333334
-1188.6464666666668
-1185.6213666666667
-1189.0953666666667
-1186.0649333333333
-1189.5278
-1186.4839333333332
-1189.9335
-1186.8686333333333
-1190.3031333333333
-1187.2101
-1190.6279333333332
-1187.5005
-1190.9003666666667
-1187.7339
-1191.1148
-1187.9066666666668
-1191.2676333333334
-1188.0167
-1191.3556666666666
-1188.0589333333335
-1191.3705333333335
-1188.0195666666666
-1191.2961
-1187.8790333333334
-1191.1144666666667
-1187.6204333333333
-1190.8126333333335
-1187.2355333333335
-1190.3873333333333
-1186.7287666666666
-1189.8483666666666
-1186.1182999999999
-1189.2179333333333
-1185.4325999999999
-1188.5257666666669
-1184.7041666666667
-1187.8034333333333
-1183.9657
-1187.0819666666666
-1183.2480666666668
-1186.3894
-1182.5765666666666
-1185.7469666666666
-1181.9676666666667
-1185.1674666666668
-1181.4295666666667
-1184.6567333333332
-1180.9637333333333
-1184.2147333333335
-1180.5668666666668
-1183.8382333333332
-1180.2339000000002
-1183.5229
-1179.9599999999998
-1183.2649333333334
-1179.7418
-1183.0619333333334
-1179.5777333333335
-1182.9133666666667
-1179.4689666666666
-1182.8216333333332
-1179.42
-1182.7921999999999
-1179.4387666666669
-1182.8336666666667
-1179.5352
-1182.9555
-1179.7185
-1183.1657666666667
-1179.9950999999999
-1183.4694
-1180.3679333333332
-1183.8677333333333
-1180.8356333333334
-1184.3571333333334
-1181.3893333333333
-1184.9255666666668
-1182.0104666666666
-1185.5519666666669
-1182.6709666666668
-1186.2057000000002
-1183.3345666666667
-1186.8495666666668
-1183.9621333333334
-1187.4458333333334
-1184.5176333333334
-1187.9616333333333
-1184.9725333333333
-1188.3724666666667
-1185.3089333333335
-1188.6656666666665
-1185.5233666666666
-1188.8431333333333
-1185.6276
-1188.9204333333334
-1185.6454333333334
-1188.9224000000002
-1185.606
-1188.8762
-1185.5347333333334
-1188.8028333333334
-1185.4469333333334
-1188.7142
-1185.3489333333334
-1188.6153000000002
-1185.2422
-1188.5077333333334
-1185.1269333333332
-1188.3923666666667
-1185.0038
-1188.2706
-1184.8751666666667
-1188.1454666666666
-1184.7451
-1188.0211333333334
-1184.6191000000001
-1187.9032
-1184.5042333333333
-1187.7985666666666
-1184.4082333333333
-1187.7142000000001
-1184.3373000000001
-1187.6549666666667
-1184.2942999999998
-1187.6227
-1184.2785666666666
-1187.6160333333332
-1184.2866666666666
-1187.6314999999997
-1184.3139333333331
-1187.664633333333
-1184.3558
-1187.7115000000001
-1184.4093
-1187.7699333333333
-1184.4741000000001
-1187.8406000000002
-1184.5533333333333
-1187.9279333333334
-1184.6542333333332
-1188.0404333333333
-1184.7876666666668
-1188.19
-1184.9666666666665
-1188.3896000000002
-1185.2028333333335
-1188.6495333333332
-1185.5035333333333
-1188.9757
-1185.8708333333332
-1189.3685
-1186.3013666666668
-1189.8238000000001
-1186.7889000000002
-1190.3365000000001
-1187.3288666666667
-1190.9049000000002
-1187.9221333333332
-1191.5342
-1188.5788
-1192.2404666666669
-1189.3211333333336
-1193.0519000000002
-1190.1818
-1194.005
-1191.1988333333334
-1195.1400666666666
-1192.4123
-1196.4993333333332
-1194.7926333333332
-1198.0236333333332
-1194.1158666666668
-1197.3406666666667
-1193.5882
-1196.8117
-1193.1920666666665
-1196.419133333333
-1192.9111666666665
-1196.1468333333335
-1192.7320666666667
-1195.9813666666666
-1192.6453
-1195.9133666666667
-1192.6459
-1195.9371666666666
-1192.7311333333332
-1196.0482666666667
-1192.8975666666665
-1196.2406666666666
-1193.1391333333333
-1196.5057333333332
-1193.4466333333332
-1196.8319333333334
-1193.8081
-1197.2061999999999
-1194.2102000000002
-1197.6149666666668
-1194.6390333333334
-1198.0446666666667
-1195.0806
-1198.4821333333332
-1195.522
-1198.9156333333333
-1195.9518666666665
-1199.3346000000001
-1196.3601
-1199.7296333333331
-1196.7375333333332
-1200.0916666666665
-1197.0751
-1200.4117333333334
-1197.3644333333332
-1200.6816999999999
-1197.5985333333333
-1200.8949
-1197.7721333333334
-1201.0462333333332
-1197.8807
-1201.1301666666666
-1197.9167333333335
-1201.1373
-1197.8676333333333
-1201.0540666666666
-1197.7179666666668
-1200.8665666666666
-1197.4552666666666
-1200.5656333333334
-1197.0748
-1200.1508333333334
-1196.5829666666668
-1199.6329666666668
-1195.9980000000003
-1199.0333666666668
-1195.3464666666666
-1198.3791666666666
-1194.6577333333335
-1197.6984666666667
-1193.9604333333334
-1197.0181333333333
-1193.281
-1196.3620666666666
-1192.6408666666666
-1195.7483666666667
-1192.0542666666668
-1195.1885000000002
-1191.5288666666665
-1194.6883333333333
-1191.0672
-1194.2495666666666
-1190.6684666666667
-1193.8712333333333
-1190.3300000000002
-1193.5511333333332
-1190.0489666666665
-1193.2871333333333
-1189.8232333333335
-1193.0778333333335
-1189.6521666666665
-1192.9234666666666
-1189.5373333333334
-1192.8265333333331
-1189.4830333333334
-1192.7920666666666
-1189.4961333333333
-1192.8272666666667
-1189.5851
-1192.9402
-1189.7578666666666
-1193.1377666666665
-1190.0199666666667
-1193.4241333333332
-1190.3733666666667
-1193.7996666666668
-1190.8155333333334
-1194.2599
-1191.3377333333335
-1194.793566666667
-1191.9229
-1195.3810333333333
-1192.5448333333334
-1195.9938
-1193.1696666666667
-1196.5974666666666
-1193.7610666666667
-1197.1574
-1194.2861666666665
-1197.6441
-1194.7195
-1198.0358999999999
-1195.0456000000001
-1198.3221
-1195.2619333333334
-1198.5045333333335
-1195.3785666666665
-1198.5962
-1195.4150333333334
-1198.6171666666667
-1195.3947333333333
-1198.5892000000001
-1195.3387666666667
-1198.5303000000001
-1195.2616333333333
-1198.4522666666664
-1195.1712
-1198.3617000000002
-1195.0713333333333
-1198.2621666666666
-1194.964
-1198.1559
-1194.8510666666668
-1198.0452
-1194.7350333333331
-1197.9328666666665
-1194.6193333333333
-1197.8225
-1194.5084
-1197.7185666666667
-1194.4077
-1197.6265666666668
-1194.3234000000002
-1197.5521
-1194.2605666666666
-1197.4994666666666
-1194.2222666666667
-1197.4708333333335
-1194.2087333333334
-1197.4658333333334
-1194.2179666666668
-1197.4822000000001
-1194.2464333333332
-1197.5164
-1194.2903
-1197.5650666666668
-1194.3468999999998
-1197.6262666666669
-1194.4158
-1197.7006666666668
-1194.5000666666667
-1197.7927
-1194.6067666666668
-1197.9107333333334
-1194.7467333333334
-1198.0665666666666
-1194.9327666666668
-1198.2727000000002
-1195.1762333333334
-1198.5393333333334
-1195.4848
-1198.8727666666666
-1195.8613333333333
-1199.2745666666667
-1196.3041666666668
-1199.7430000000002
-1196.8102333333334
-1200.2766666666666
-1197.3789666666667
-1200.8781999999999
-1198.0162
-1201.5580333333335
-1198.7377
-1202.3377
-1199.5712333333333
-1203.2501666666667
-1200.5540333333333
-1204.3357666666666
-1201.7279666666666
-1205.6381666666666
-1203.1373
-1207.2038666666667
-1205.2153666666666
-1208.3198333333332
-1204.3528999999999
-1207.4612666666665
-1203.6725333333334
-1206.7897666666668
-1203.156
-1206.2866333333334
-1202.7854333333335
-1205.9334666666666
-1202.5441666666666
-1205.7129333333332
-1202.4182
-1205.6105333333335
-1202.3969666666665
-1205.6149666666668
-1202.4723000000001
-1205.7165333333332
-1202.6355999999998
-1205.9044333333331
-1202.8760999999997
-1206.1656999999998
-1203.1806333333332
-1206.4857666666667
-1203.5351666666668
-1206.8502666666666
-1203.9260666666667
-1207.2457666666667
-1204.3402999999998
-1207.6596333333334
-1204.7655333333335
-1208.0803
-1205.1905333333334
-1208.4972
-1205.6050333333333
-1208.9006333333334
-1205.9997333333333
-1209.2817333333335
-1206.3657666666668
-1209.631666666667
-1206.6942
-1209.9416333333334
-1206.9764333333333
-1210.2033333333331
-1207.2049666666667
-1210.4097333333334
-1207.3737666666666
-1210.5549666666666
-1207.4769
-1210.6324
-1207.5062333333333
-1210.6328999999998
-1207.4504
-1210.5447666666666
-1207.2970333333333
-1210.3573
-1207.0372
-1210.0642666666668
-1206.6687333333332
-1209.6670333333334
-1206.1991333333333
-1209.1766333333333
-1205.6458333333333
-1208.6127666666669
-1205.033
-1207.9997
-1204.3866
-1207.3620666666666
-1203.7316333333335
-1206.7232000000001
-1203.090766666667
-1206.1036000000001
-1202.4823999999999
-1205.5191333333332
-1201.9193333333335
-1204.9805333333334
-1201.4091666666666
-1204.4939666666667
-1200.9555
-1204.0624333333333
-1200.5592666666669
-1203.6867
-1200.2198
-1203.3663
-1199.9358
-1203.1002999999998
-1199.7062333333333
-1202.8882
-1199.5311
-1202.7306999999998
-1199.4122666666665
-1202.6303666666665
-1199.3536666666666
-1202.5915666666667
-1199.3611
-1202.6203333333333
-1199.4415999999999
-1202.7232666666666
-1199.6017666666667
-1202.9061
-1199.8462666666667
-1203.1721333333332
-1200.1763
-1203.5211
-1200.5888333333335
-1203.9482
-1201.0751
-1204.4425666666666
-1201.6191666666666
-1204.9861333333336
-1202.1969666666666
-1205.5528
-1202.7774333333334
-1206.1113666666668
-1203.3277333333333
-1206.631
-1203.8185999999998
-1207.0855333333332
-1204.2274333333332
-1207.4559333333334
-1204.5409000000002
-1207.733
-1204.7567999999999
-1207.9181333333333
-1204.8835000000001
-1208.0218333333335
-1204.9366666666667
-1208.0599333333332
-1204.9349000000002
-1208.0498333333335
-1204.8956666666666
-1208.0067666666666
-1204.8320333333334
-1207.9417999999998
-1204.7525333333333
-1207.8622333333333
-1204.6622333333332
-1207.7726666666667
-1204.5645000000002
-1207.6764999999998
-1204.4620333333332
-1207.5765
-1204.3575
-1207.4756
-1204.2541333333334
-1207.3771
-1204.1556333333333
-1207.2848000000001
-1204.0665999999999
-1207.2033666666669
-1203.9920333333332
-1207.1373333333333
-1203.9363
-1207.0906333333332
-1203.9023666666665
-1207.0654333333332
-1203.891
-1207.0619666666666
-1203.9010333333333
-1207.0786666666665
-1203.9298000000001
-1207.1128666666666
-1203.9742333333334
-1207.1618333333333
-1204.0320333333332
-1207.2241000000001
-1204.1032
-1207.3007
-1204.1908
-1207.3959666666667
-1204.3018333333334
-1207.5182
-1204.4469333333334
-1207.6787333333332
-1204.6382999999998
-1207.8894333333335
-1204.8869333333334
-1208.1603
-1205.2006666666666
-1208.4980666666668
-1205.5834
-1208.9059
-1206.0359
-1209.3851
-1206.5586333333333
-1209.9381999999998
-1207.1554666666666
-1210.5724
-1207.8369666666667
-1211.3026666666665
-1208.6237333333331
-1212.1549333333332
-1209.5478333333333
-1213.1659
-1210.6499666666666
-1214.3785333333333
-1211.9745333333333
-1215.8386333333333
-1213.5688333333335
-1217.5958666666668
-1215.4426
-1218.4078333333334
-1214.3934333333334
-1217.3746333333333
-1213.5597
-1216.5614
-1212.9221
-1215.9479666666666
-1212.4605333333332
-1215.5130666666666
-1212.1547666666668
-1215.2350666666669
-1211.9855666666665
-1215.0939666666666
-1211.9369333333334
-1215.0732333333333
-1211.9955
-1215.1583